 Entering Gaussian System, Link 0=g16
 Input=h2o-t-b3lyp.com
 Output=h2o-t-b3lyp.log
 Initial command:
 /scratch/SOFT/gaussian/g16_a03/g16/l1.exe "/home/mgimferrer/APOST3D.3.0/testset/new/Gau-31522.inp" -scrdir="/home/mgimferrer/APOST3D.3.0/testset/new/"
 Entering Link 1 = /scratch/SOFT/gaussian/g16_a03/g16/l1.exe PID=     31523.
  
 Copyright (c) 1988,1990,1992,1993,1995,1998,2003,2009,2016,
            Gaussian, Inc.  All Rights Reserved.
  
 This is part of the Gaussian(R) 16 program.  It is based on
 the Gaussian(R) 09 system (copyright 2009, Gaussian, Inc.),
 the Gaussian(R) 03 system (copyright 2003, Gaussian, Inc.),
 the Gaussian(R) 98 system (copyright 1998, Gaussian, Inc.),
 the Gaussian(R) 94 system (copyright 1995, Gaussian, Inc.),
 the Gaussian 92(TM) system (copyright 1992, Gaussian, Inc.),
 the Gaussian 90(TM) system (copyright 1990, Gaussian, Inc.),
 the Gaussian 88(TM) system (copyright 1988, Gaussian, Inc.),
 the Gaussian 86(TM) system (copyright 1986, Carnegie Mellon
 University), and the Gaussian 82(TM) system (copyright 1983,
 Carnegie Mellon University). Gaussian is a federally registered
 trademark of Gaussian, Inc.
  
 This software contains proprietary and confidential information,
 including trade secrets, belonging to Gaussian, Inc.
  
 This software is provided under written license and may be
 used, copied, transmitted, or stored only in accord with that
 written license.
  
 The following legend is applicable only to US Government
 contracts under FAR:
  
                    RESTRICTED RIGHTS LEGEND
  
 Use, reproduction and disclosure by the US Government is
 subject to restrictions as set forth in subparagraphs (a)
 and (c) of the Commercial Computer Software - Restricted
 Rights clause in FAR 52.227-19.
  
 Gaussian, Inc.
 340 Quinnipiac St., Bldg. 40, Wallingford CT 06492
  
  
 ---------------------------------------------------------------
 Warning -- This program may not be used in any manner that
 competes with the business of Gaussian, Inc. or will provide
 assistance to any competitor of Gaussian, Inc.  The licensee
 of this program is prohibited from giving any competitor of
 Gaussian, Inc. access to this program.  By using this program,
 the user acknowledges that Gaussian, Inc. is engaged in the
 business of creating and licensing software in the field of
 computational chemistry and represents and warrants to the
 licensee that it is not a competitor of Gaussian, Inc. and that
 it will not use this program in any manner prohibited above.
 ---------------------------------------------------------------
  

 Cite this work as:
 Gaussian 16, Revision A.03,
 M. J. Frisch, G. W. Trucks, H. B. Schlegel, G. E. Scuseria, 
 M. A. Robb, J. R. Cheeseman, G. Scalmani, V. Barone, 
 G. A. Petersson, H. Nakatsuji, X. Li, M. Caricato, A. V. Marenich, 
 J. Bloino, B. G. Janesko, R. Gomperts, B. Mennucci, H. P. Hratchian, 
 J. V. Ortiz, A. F. Izmaylov, J. L. Sonnenberg, D. Williams-Young, 
 F. Ding, F. Lipparini, F. Egidi, J. Goings, B. Peng, A. Petrone, 
 T. Henderson, D. Ranasinghe, V. G. Zakrzewski, J. Gao, N. Rega, 
 G. Zheng, W. Liang, M. Hada, M. Ehara, K. Toyota, R. Fukuda, 
 J. Hasegawa, M. Ishida, T. Nakajima, Y. Honda, O. Kitao, H. Nakai, 
 T. Vreven, K. Throssell, J. A. Montgomery, Jr., J. E. Peralta, 
 F. Ogliaro, M. J. Bearpark, J. J. Heyd, E. N. Brothers, K. N. Kudin, 
 V. N. Staroverov, T. A. Keith, R. Kobayashi, J. Normand, 
 K. Raghavachari, A. P. Rendell, J. C. Burant, S. S. Iyengar, 
 J. Tomasi, M. Cossi, J. M. Millam, M. Klene, C. Adamo, R. Cammi, 
 J. W. Ochterski, R. L. Martin, K. Morokuma, O. Farkas, 
 J. B. Foresman, and D. J. Fox, Gaussian, Inc., Wallingford CT, 2016.
 
 ******************************************
 Gaussian 16:  ES64L-G16RevA.03 25-Dec-2016
                 7-Feb-2019 
 ******************************************
 %nproc=1
 Will use up to    1 processors via shared memory.
 %chk=h2o-t-b3lyp.chk
 %mem=2000mb
 --------------------------------------------------
 #p ub3lyp/cc-pvtz pop=full opt gfinput iop(3/33=1)
 --------------------------------------------------
 1/18=20,19=15,26=3,38=1/1,3;
 2/9=110,12=2,17=6,18=5,40=1/2;
 3/5=16,6=1,11=2,24=10,25=1,30=1,33=1,71=1,74=-5,116=2/1,2,3;
 4//1;
 5/5=2,38=5/2;
 6/7=3,28=1/1;
 7//1,2,3,16;
 1/18=20,19=15,26=3/3(2);
 2/9=110/2;
 99//99;
 2/9=110/2;
 3/5=16,6=1,11=2,25=1,30=1,33=1,71=1,74=-5,116=2/1,2,3;
 4/5=5,16=3,69=1/1;
 5/5=2,38=5/2;
 7//1,2,3,16;
 1/18=20,19=15,26=3/3(-5);
 2/9=110/2;
 6/7=3,19=2,28=1/1;
 99/9=1/99;
 Leave Link    1 at Thu Feb  7 03:20:44 2019, MaxMem=   262144000 cpu:               0.0 elap:               0.0
 (Enter /scratch/SOFT/gaussian/g16_a03/g16/l101.exe)
 ------
 dsfdsf
 ------
 Symbolic Z-matrix:
 Charge =  0 Multiplicity = 3
 O
 H                    1    r
 H                    1    r        2    a
       Variables:
  r                     0.94                     
  a                   105.                       
 
 ITRead=  0  0  0
 MicOpt= -1 -1 -1
 NAtoms=      3 NQM=        3 NQMF=       0 NMMI=      0 NMMIF=      0
                NMic=       0 NMicF=      0.
                    Isotopes and Nuclear Properties:
 (Nuclear quadrupole moments (NQMom) in fm**2, nuclear magnetic moments (NMagM)
  in nuclear magnetons)

  Atom         1           2           3
 IAtWgt=          16           1           1
 AtmWgt=  15.9949146   1.0078250   1.0078250
 NucSpn=           0           1           1
 AtZEff=  -0.0000000  -0.0000000  -0.0000000
 NQMom=    0.0000000   0.0000000   0.0000000
 NMagM=    0.0000000   2.7928460   2.7928460
 AtZNuc=   8.0000000   1.0000000   1.0000000
 Leave Link  101 at Thu Feb  7 03:20:48 2019, MaxMem=   262144000 cpu:               0.1 elap:               3.9
 (Enter /scratch/SOFT/gaussian/g16_a03/g16/l103.exe)

 GradGradGradGradGradGradGradGradGradGradGradGradGradGradGradGradGradGrad
 Berny optimization.
 Initialization pass.
                           ----------------------------
                           !    Initial Parameters    !
                           ! (Angstroms and Degrees)  !
 --------------------------                            --------------------------
 ! Name  Definition              Value          Derivative Info.                !
 --------------------------------------------------------------------------------
 ! R1    R(1,2)                  0.94           estimate D2E/DX2                !
 ! R2    R(1,3)                  0.94           estimate D2E/DX2                !
 ! A1    A(2,1,3)              105.0            estimate D2E/DX2                !
 --------------------------------------------------------------------------------
 Trust Radius=3.00D-01 FncErr=1.00D-07 GrdErr=1.00D-06 EigMax=2.50D+02 EigMin=1.00D-04
 Number of steps in this run=     20 maximum allowed number of steps=    100.
 GradGradGradGradGradGradGradGradGradGradGradGradGradGradGradGradGradGrad

 Leave Link  103 at Thu Feb  7 03:20:48 2019, MaxMem=   262144000 cpu:               0.0 elap:               0.1
 (Enter /scratch/SOFT/gaussian/g16_a03/g16/l202.exe)
                          Input orientation:                          
 ---------------------------------------------------------------------
 Center     Atomic      Atomic             Coordinates (Angstroms)
 Number     Number       Type             X           Y           Z
 ---------------------------------------------------------------------
      1          8           0        0.000000    0.000000    0.000000
      2          1           0        0.000000    0.000000    0.940000
      3          1           0        0.907970    0.000000   -0.243290
 ---------------------------------------------------------------------
                    Distance matrix (angstroms):
                    1          2          3
     1  O    0.000000
     2  H    0.940000   0.000000
     3  H    0.940000   1.491504   0.000000
 Stoichiometry    H2O(3)
 Framework group  C2V[C2(O),SGV(H2)]
 Deg. of freedom     2
 Full point group                 C2V     NOp   4
 Largest Abelian subgroup         C2V     NOp   4
 Largest concise Abelian subgroup C2      NOp   2
                         Standard orientation:                         
 ---------------------------------------------------------------------
 Center     Atomic      Atomic             Coordinates (Angstroms)
 Number     Number       Type             X           Y           Z
 ---------------------------------------------------------------------
      1          8           0       -0.000000    0.000000    0.114447
      2          1           0       -0.000000    0.745752   -0.457789
      3          1           0       -0.000000   -0.745752   -0.457789
 ---------------------------------------------------------------------
 Rotational constants (GHZ):         862.1791207         450.8302454         296.0347691
 Leave Link  202 at Thu Feb  7 03:20:48 2019, MaxMem=   262144000 cpu:               0.0 elap:               0.0
 (Enter /scratch/SOFT/gaussian/g16_a03/g16/l301.exe)
 Standard basis: CC-pVTZ (5D, 7F)
                         Coordinates in L301:                         
 ---------------------------------------------------------------------
 Center     Atomic      Atomic             Coordinates (Angstroms)
 Number     Number       Type             X           Y           Z
 ---------------------------------------------------------------------
      1          8           0       -0.000000   -0.000000    0.114447
      2          1           0       -0.000000    0.745752   -0.457789
      3          1           0       -0.000000   -0.745752   -0.457789
 ---------------------------------------------------------------------
 FixB: optimizing general contractions.
 Ernie: Thresh=  0.10000D-02 Tol=  0.10000D-05 Strict=F.
 IA=     1 ShT= 0 ShC= 0 NL=   4 NS=   2.
 IA=     1 L=0 SC=0 ISt=    1 NBk=    2 NP=    8 IndPr=    0.
 DoElim1:  L=0 select primitive    2 from    2 using    1 C= 3.93D-03
 DoElim2:  L=0 select primitive    8 from    1 using    2 C= 6.02D-01
 Delete L=0 primitive    2 from    2 C=  0.00D+00.
 Delete L=0 primitive    1 from    2 C=  7.19D-07.
 Delete L=0 primitive    8 from    1 C=  0.00D+00.
 IA=     1 L=0 SC=0 ISt=    0 NBk=    0 NP=    0 IndPr=   13.
 IA=     1 ShT= 1 ShC= 1 NL=   3 NS=   2.
 IA=     1 L=1 SC=1 ISt=    0 NBk=    0 NP=    0 IndPr=    0.
 IA=     1 ShT= 2 ShC= 2 NL=   2 NS=   2.
 IA=     1 L=2 SC=2 ISt=    0 NBk=    0 NP=    0 IndPr=    0.
 IA=     1 ShT= 3 ShC= 3 NL=   1 NS=   1.
 IA=     1 L=3 SC=3 ISt=    0 NBk=    0 NP=    0 IndPr=    0.
 IA=     2 ShT= 0 ShC= 0 NL=   3 NS=   2.
 IA=     2 L=0 SC=0 ISt=    0 NBk=    0 NP=    0 IndPr=    0.
 IA=     2 ShT= 1 ShC= 1 NL=   2 NS=   2.
 IA=     2 L=1 SC=1 ISt=    0 NBk=    0 NP=    0 IndPr=    0.
 IA=     2 ShT= 2 ShC= 2 NL=   1 NS=   1.
 IA=     2 L=2 SC=2 ISt=    0 NBk=    0 NP=    0 IndPr=    0.
 IA=     3 ShT= 0 ShC= 0 NL=   3 NS=   2.
 IA=     3 L=0 SC=0 ISt=    0 NBk=    0 NP=    0 IndPr=    0.
 IA=     3 ShT= 1 ShC= 1 NL=   2 NS=   2.
 IA=     3 L=1 SC=1 ISt=    0 NBk=    0 NP=    0 IndPr=    0.
 IA=     3 ShT= 2 ShC= 2 NL=   1 NS=   1.
 IA=     3 L=2 SC=2 ISt=    0 NBk=    0 NP=    0 IndPr=    0.
 Ernie:  3 primitive shells out of 42 were deleted.
 AO basis set in the form of general basis input (Overlap normalization):
      1 0
 S   7 1.00       0.000000000000
      0.1533000000D+05  0.5198089434D-03
      0.2299000000D+04  0.4020256215D-02
      0.5224000000D+03  0.2071282673D-01
      0.1473000000D+03  0.8101055358D-01
      0.4755000000D+02  0.2359629851D+00
      0.1676000000D+02  0.4426534455D+00
      0.6207000000D+01  0.3570644227D+00
 S   6 1.00       0.000000000000
      0.5224000000D+03 -0.4421150084D-04
      0.1473000000D+03 -0.1225910413D-02
      0.4755000000D+02 -0.1055177248D-01
      0.1676000000D+02 -0.6744526326D-01
      0.6207000000D+01 -0.1711986073D+00
      0.6882000000D+00  0.1073298561D+01
 S   1 1.00       0.000000000000
      0.1752000000D+01  0.1000000000D+01
 S   1 1.00       0.000000000000
      0.2384000000D+00  0.1000000000D+01
 P   3 1.00       0.000000000000
      0.3446000000D+02  0.4116348957D-01
      0.7749000000D+01  0.2577628359D+00
      0.2280000000D+01  0.8024192744D+00
 P   1 1.00       0.000000000000
      0.7156000000D+00  0.1000000000D+01
 P   1 1.00       0.000000000000
      0.2140000000D+00  0.1000000000D+01
 D   1 1.00       0.000000000000
      0.2314000000D+01  0.1000000000D+01
 D   1 1.00       0.000000000000
      0.6450000000D+00  0.1000000000D+01
 F   1 1.00       0.000000000000
      0.1428000000D+01  0.1000000000D+01
 ****
      2 0
 S   3 1.00       0.000000000000
      0.3387000000D+02  0.2549486323D-01
      0.5095000000D+01  0.1903627659D+00
      0.1159000000D+01  0.8521620222D+00
 S   1 1.00       0.000000000000
      0.3258000000D+00  0.1000000000D+01
 S   1 1.00       0.000000000000
      0.1027000000D+00  0.1000000000D+01
 P   1 1.00       0.000000000000
      0.1407000000D+01  0.1000000000D+01
 P   1 1.00       0.000000000000
      0.3880000000D+00  0.1000000000D+01
 D   1 1.00       0.000000000000
      0.1057000000D+01  0.1000000000D+01
 ****
      3 0
 S   3 1.00       0.000000000000
      0.3387000000D+02  0.2549486323D-01
      0.5095000000D+01  0.1903627659D+00
      0.1159000000D+01  0.8521620222D+00
 S   1 1.00       0.000000000000
      0.3258000000D+00  0.1000000000D+01
 S   1 1.00       0.000000000000
      0.1027000000D+00  0.1000000000D+01
 P   1 1.00       0.000000000000
      0.1407000000D+01  0.1000000000D+01
 P   1 1.00       0.000000000000
      0.3880000000D+00  0.1000000000D+01
 D   1 1.00       0.000000000000
      0.1057000000D+01  0.1000000000D+01
 ****

 LdAtmC:  AtmChg=     8.000000     1.000000     1.000000
 AtZEff=     -5.6000000     -1.0000000     -1.0000000
 NEqShl: 
              1            2            3            4
     1            1            1            1            1
     2            2            2            2            2
     3            3            3            3            3
     4            4            4            4            4
     5            5            5            5            5
     6            6            6            6            6
     7            7            7            7            7
     8            8            8            8            8
     9            9            9            9            9
    10           10           10           10           10
    11           11           17           11           17
    12           12           18           12           18
    13           13           19           13           19
    14           14           20           14           20
    15           15           21           15           21
    16           16           22           16           22
    17           17           11           17           11
    18           18           12           18           12
    19           19           13           19           13
    20           20           14           20           14
    21           21           15           21           15
    22           22           16           22           16
 NEqBas: 
              1            2            3            4
     1            1            1            1            1
     2            2            2            2            2
     3            3            3            3            3
     4            4            4            4            4
     5            5           -5           -5            5
     6            6           -6            6           -6
     7            7            7            7            7
     8            8           -8           -8            8
     9            9           -9            9           -9
    10           10           10           10           10
    11           11          -11          -11           11
    12           12          -12           12          -12
    13           13           13           13           13
    14           14           14           14           14
    15           15           15           15           15
    16           16           16           16           16
    17           17           17          -17          -17
    18           18          -18          -18           18
    19           19          -19           19          -19
    20           20           20           20           20
    21           21           21           21           21
    22           22           22           22           22
    23           23           23          -23          -23
    24           24          -24          -24           24
    25           25          -25           25          -25
    26           26          -26          -26           26
    27           27          -27           27          -27
    28           28           28           28           28
    29           29          -29          -29           29
    30           30          -30           30          -30
    31           31           31           31           31
    32           32          -32          -32           32
    33           33          -33           33          -33
    34           34           34           34           34
    35           35           35          -35          -35
    36           36           51           36           51
    37           37           52           37           52
    38           38           53           38           53
    39           39          -54          -39           54
    40           40          -55           40          -55
    41           41           56           41           56
    42           42          -57          -42           57
    43           43          -58           43          -58
    44           44           59           44           59
    45           45           60           45           60
    46           46           61           46           61
    47           47           62           47           62
    48           48           63          -48          -63
    49           49          -64          -49           64
    50           50          -65           50          -65
    51           51           36           51           36
    52           52           37           52           37
    53           53           38           53           38
    54           54          -39          -54           39
    55           55          -40           55          -40
    56           56           41           56           41
    57           57          -42          -57           42
    58           58          -43           58          -43
    59           59           44           59           44
    60           60           45           60           45
    61           61           46           61           46
    62           62           47           62           47
    63           63           48          -63          -48
    64           64          -49          -64           49
    65           65          -50           65          -50
 There are    27 symmetry adapted cartesian basis functions of A1  symmetry.
   1         1   1   1   1
   2         2   2   2   2
   3         3   3   3   3
   4         4   4   4   4
   5         7   7   7   7
   6        10  10  10  10
   7        13  13  13  13
   8        14  14  14  14
   9        15  15  15  15
  10        16  16  16  16
  11        20  20  20  20
  12        21  21  21  21
  13        22  22  22  22
  14        28  28  28  28
  15        31  31  31  31
  16        34  34  34  34
  17        36  51  51  36
  18        37  52  52  37
  19        38  53  53  38
  20        40 -55 -55  40
  21        41  56  56  41
  22        43 -58 -58  43
  23        44  59  59  44
  24        45  60  60  45
  25        46  61  61  46
  26        47  62  62  47
  27        50 -65 -65  50
 There are     7 symmetry adapted cartesian basis functions of A2  symmetry.
  28        17  17  17  17
  29        23  23  23  23
  30        35  35  35  35
  31        39 -54 -54  39
  32        42 -57 -57  42
  33        48  63  63  48
  34        49 -64 -64  49
 There are    12 symmetry adapted cartesian basis functions of B1  symmetry.
  35         5   5   5   5
  36         8   8   8   8
  37        11  11  11  11
  38        18  18  18  18
  39        24  24  24  24
  40        26  26  26  26
  41        29  29  29  29
  42        32  32  32  32
  43        39  54  54  39
  44        42  57  57  42
  45        48 -63 -63  48
  46        49  64  64  49
 There are    19 symmetry adapted cartesian basis functions of B2  symmetry.
  47         6   6   6   6
  48         9   9   9   9
  49        12  12  12  12
  50        19  19  19  19
  51        25  25  25  25
  52        27  27  27  27
  53        30  30  30  30
  54        33  33  33  33
  55        36 -51 -51  36
  56        37 -52 -52  37
  57        38 -53 -53  38
  58        40  55  55  40
  59        41 -56 -56  41
  60        43  58  58  43
  61        44 -59 -59  44
  62        45 -60 -60  45
  63        46 -61 -61  46
  64        47 -62 -62  47
  65        50  65  65  50
 Order= 1 2 4 3
 Reordered character table:
              1            2            3            4            5
     1            1            1            1            1            1
     2            2            1            1           -1           -1
     3            4            1           -1           -1            1
     4            3            1           -1            1           -1
 NEqShl: 
              1            2            3            4
     1            1            1            1            1
     2            2            2            2            2
     3            3            3            3            3
     4            4            4            4            4
     5            5            5            5            5
     6            6            6            6            6
     7            7            7            7            7
     8            8            8            8            8
     9            9            9            9            9
    10           10           10           10           10
    11           11           17           11           17
    12           12           18           12           18
    13           13           19           13           19
    14           14           20           14           20
    15           15           21           15           21
    16           16           22           16           22
    17           17           11           17           11
    18           18           12           18           12
    19           19           13           19           13
    20           20           14           20           14
    21           21           15           21           15
    22           22           16           22           16
 NEqBas: 
              1            2            3            4
     1            1            1            1            1
     2            2            2            2            2
     3            3            3            3            3
     4            4            4            4            4
     5            5           -5           -5            5
     6            6           -6            6           -6
     7            7            7            7            7
     8            8           -8           -8            8
     9            9           -9            9           -9
    10           10           10           10           10
    11           11          -11          -11           11
    12           12          -12           12          -12
    13           13           13           13           13
    14           14           14           14           14
    15           15          -15          -15           15
    16           16          -16           16          -16
    17           17           17           17           17
    18           18           18          -18          -18
    19           19           19           19           19
    20           20          -20          -20           20
    21           21          -21           21          -21
    22           22           22           22           22
    23           23           23          -23          -23
    24           24           24           24           24
    25           25          -25          -25           25
    26           26          -26           26          -26
    27           27           27           27           27
    28           28           28          -28          -28
    29           29          -29          -29           29
    30           30          -30           30          -30
    31           31           45           31           45
    32           32           46           32           46
    33           33           47           33           47
    34           34          -48          -34           48
    35           35          -49           35          -49
    36           36           50           36           50
    37           37          -51          -37           51
    38           38          -52           38          -52
    39           39           53           39           53
    40           40           54           40           54
    41           41          -55          -41           55
    42           42          -56           42          -56
    43           43           57           43           57
    44           44           58          -44          -58
    45           45           31           45           31
    46           46           32           46           32
    47           47           33           47           33
    48           48          -34          -48           34
    49           49          -35           49          -35
    50           50           36           50           36
    51           51          -37          -51           37
    52           52          -38           52          -38
    53           53           39           53           39
    54           54           40           54           40
    55           55          -41          -55           41
    56           56          -42           56          -42
    57           57           43           57           43
    58           58           44          -58          -44
 There are    23 symmetry adapted basis functions of A1  symmetry.
   1         1   1   1   1
   2         2   2   2   2
   3         3   3   3   3
   4         4   4   4   4
   5         7   7   7   7
   6        10  10  10  10
   7        13  13  13  13
   8        14  14  14  14
   9        17  17  17  17
  10        19  19  19  19
  11        22  22  22  22
  12        24  24  24  24
  13        27  27  27  27
  14        31  45  45  31
  15        32  46  46  32
  16        33  47  47  33
  17        35 -49 -49  35
  18        36  50  50  36
  19        38 -52 -52  38
  20        39  53  53  39
  21        40  54  54  40
  22        42 -56 -56  42
  23        43  57  57  43
 There are     7 symmetry adapted basis functions of A2  symmetry.
  24        18  18  18  18
  25        23  23  23  23
  26        28  28  28  28
  27        34 -48 -48  34
  28        37 -51 -51  37
  29        41 -55 -55  41
  30        44  58  58  44
 There are    11 symmetry adapted basis functions of B1  symmetry.
  31         5   5   5   5
  32         8   8   8   8
  33        11  11  11  11
  34        15  15  15  15
  35        20  20  20  20
  36        25  25  25  25
  37        29  29  29  29
  38        34  48  48  34
  39        37  51  51  37
  40        41  55  55  41
  41        44 -58 -58  44
 There are    17 symmetry adapted basis functions of B2  symmetry.
  42         6   6   6   6
  43         9   9   9   9
  44        12  12  12  12
  45        16  16  16  16
  46        21  21  21  21
  47        26  26  26  26
  48        30  30  30  30
  49        31 -45 -45  31
  50        32 -46 -46  32
  51        33 -47 -47  33
  52        35  49  49  35
  53        36 -50 -50  36
  54        38  52  52  38
  55        39 -53 -53  39
  56        40 -54 -54  40
  57        42  56  56  42
  58        43 -57 -57  43
 Order= 1 2 4 3
 Reordered character table:
              1            2            3            4            5
     1            1            1            1            1            1
     2            2            1            1           -1           -1
     3            4            1           -1           -1            1
     4            3            1           -1            1           -1
    58 basis functions,    86 primitive gaussians,    65 cartesian basis functions
     6 alpha electrons        4 beta electrons
       nuclear repulsion energy         9.3620659712 Hartrees.
 IS=     1 IAt=     1 ISR=     1 T=0 IP=      1 IndIP=      1 IndIPD=      0 C=  5.103998D-01  0.000000D+00                             NZ=T
 IS=     1 IAt=     1 ISR=     1 T=0 IP=      2 IndIP=      2 IndIPD=      1 C=  9.513012D-01  0.000000D+00                             NZ=T
 IS=     1 IAt=     1 ISR=     1 T=0 IP=      3 IndIP=      3 IndIPD=      2 C=  1.613065D+00  0.000000D+00                             NZ=T
 IS=     1 IAt=     1 ISR=     1 T=0 IP=      4 IndIP=      4 IndIPD=      3 C=  2.441202D+00  0.000000D+00                             NZ=T
 IS=     1 IAt=     1 ISR=     1 T=0 IP=      5 IndIP=      5 IndIPD=      4 C=  3.045207D+00  0.000000D+00                             NZ=T
 IS=     1 IAt=     1 ISR=     1 T=0 IP=      6 IndIP=      6 IndIPD=      5 C=  2.613241D+00  0.000000D+00                             NZ=T
 IS=     1 IAt=     1 ISR=     1 T=0 IP=      7 IndIP=      7 IndIPD=      6 C=  1.000732D+00  0.000000D+00                             NZ=T
 IS=     2 IAt=     1 ISR=     2 T=0 IP=      1 IndIP=      8 IndIPD=      0 C= -3.443085D-03  0.000000D+00                             NZ=T
 IS=     2 IAt=     1 ISR=     2 T=0 IP=      2 IndIP=      9 IndIPD=      1 C= -3.694204D-02  0.000000D+00                             NZ=T
 IS=     2 IAt=     1 ISR=     2 T=0 IP=      3 IndIP=     10 IndIPD=      2 C= -1.361753D-01  0.000000D+00                             NZ=T
 IS=     2 IAt=     1 ISR=     2 T=0 IP=      4 IndIP=     11 IndIPD=      3 C= -3.981686D-01  0.000000D+00                             NZ=T
 IS=     2 IAt=     1 ISR=     2 T=0 IP=      5 IndIP=     12 IndIPD=      4 C= -4.798126D-01  0.000000D+00                             NZ=T
 IS=     2 IAt=     1 ISR=     2 T=0 IP=      6 IndIP=     13 IndIPD=      5 C=  5.779851D-01  0.000000D+00                             NZ=T
 IS=     3 IAt=     1 ISR=     3 T=0 IP=      1 IndIP=     14 IndIPD=      0 C=  1.085327D+00  0.000000D+00                             NZ=T
 IS=     4 IAt=     1 ISR=     4 T=0 IP=      1 IndIP=     15 IndIPD=      0 C=  2.431587D-01  0.000000D+00                             NZ=T
 IS=     5 IAt=     1 ISR=     5 T=1 IP=      1 IndIP=     16 IndIPD=      0 C=  0.000000D+00  4.898875D+00                             NZ=T
 IS=     5 IAt=     1 ISR=     5 T=1 IP=      2 IndIP=     17 IndIPD=      1 C=  0.000000D+00  4.750261D+00                             NZ=T
 IS=     5 IAt=     1 ISR=     5 T=1 IP=      3 IndIP=     18 IndIPD=      2 C=  0.000000D+00  3.204498D+00                             NZ=T
 IS=     6 IAt=     1 ISR=     6 T=1 IP=      1 IndIP=     19 IndIPD=      0 C=  0.000000D+00  9.381624D-01                             NZ=T
 IS=     7 IAt=     1 ISR=     7 T=1 IP=      1 IndIP=     20 IndIPD=      0 C=  0.000000D+00  2.074710D-01                             NZ=T
 IS=     8 IAt=     1 ISR=     8 T=2 IP=      1 IndIP=     21 IndIPD=      1 C=  0.000000D+00  0.000000D+00  7.145709D+00  0.000000D+00 NZ=T
 IS=     9 IAt=     1 ISR=     9 T=2 IP=      1 IndIP=     22 IndIPD=      2 C=  0.000000D+00  0.000000D+00  7.640802D-01  0.000000D+00 NZ=T
 IS=    10 IAt=     1 ISR=    10 T=3 IP=      1 IndIP=     23 IndIPD=      3 C=  0.000000D+00  0.000000D+00  0.000000D+00  3.281655D+00 NZ=T
 IS=    11 IAt=     2 ISR=     1 T=0 IP=      1 IndIP=     24 IndIPD=      0 C=  2.551081D-01  0.000000D+00                             NZ=T
 IS=    11 IAt=     2 ISR=     1 T=0 IP=      2 IndIP=     25 IndIPD=      1 C=  4.600979D-01  0.000000D+00                             NZ=T
 IS=    11 IAt=     2 ISR=     1 T=0 IP=      3 IndIP=     26 IndIPD=      2 C=  6.784141D-01  0.000000D+00                             NZ=T
 IS=    12 IAt=     2 ISR=     2 T=0 IP=      1 IndIP=     27 IndIPD=      0 C=  3.073431D-01  0.000000D+00                             NZ=T
 IS=    13 IAt=     2 ISR=     3 T=0 IP=      1 IndIP=     28 IndIPD=      0 C=  1.292968D-01  0.000000D+00                             NZ=T
 IS=    14 IAt=     2 ISR=     4 T=1 IP=      1 IndIP=     29 IndIPD=      0 C=  0.000000D+00  2.184277D+00                             NZ=T
 IS=    15 IAt=     2 ISR=     5 T=1 IP=      1 IndIP=     30 IndIPD=      0 C=  0.000000D+00  4.364955D-01                             NZ=T
 IS=    16 IAt=     2 ISR=     6 T=2 IP=      1 IndIP=     31 IndIPD=      4 C=  0.000000D+00  0.000000D+00  1.813597D+00  0.000000D+00 NZ=T
 IS=    17 IAt=     3 ISR=     1 T=0 IP=      1 IndIP=     32 IndIPD=      0 C=  2.551081D-01  0.000000D+00                             NZ=T
 IS=    17 IAt=     3 ISR=     1 T=0 IP=      2 IndIP=     33 IndIPD=      1 C=  4.600979D-01  0.000000D+00                             NZ=T
 IS=    17 IAt=     3 ISR=     1 T=0 IP=      3 IndIP=     34 IndIPD=      2 C=  6.784141D-01  0.000000D+00                             NZ=T
 IS=    18 IAt=     3 ISR=     2 T=0 IP=      1 IndIP=     35 IndIPD=      0 C=  3.073431D-01  0.000000D+00                             NZ=T
 IS=    19 IAt=     3 ISR=     3 T=0 IP=      1 IndIP=     36 IndIPD=      0 C=  1.292968D-01  0.000000D+00                             NZ=T
 IS=    20 IAt=     3 ISR=     4 T=1 IP=      1 IndIP=     37 IndIPD=      0 C=  0.000000D+00  2.184277D+00                             NZ=T
 IS=    21 IAt=     3 ISR=     5 T=1 IP=      1 IndIP=     38 IndIPD=      0 C=  0.000000D+00  4.364955D-01                             NZ=T
 IS=    22 IAt=     3 ISR=     6 T=2 IP=      1 IndIP=     39 IndIPD=      5 C=  0.000000D+00  0.000000D+00  1.813597D+00  0.000000D+00 NZ=T
 IExCor=  402 DFT=T Ex+Corr=B3LYP ExCW=0 ScaHFX=  0.200000
 ScaDFX=  0.800000  0.720000  1.000000  0.810000 ScalE2=  1.000000  1.000000
 IRadAn=      5 IRanWt=     -1 IRanGd=            0 ICorTp=0 IEmpDi=  4
 NAtoms=    3 NActive=    3 NUniq=    2 SFac= 2.25D+00 NAtFMM=   60 NAOKFM=F Big=F
 Integral buffers will be    131072 words long.
 Raffenetti 2 integral format.
 Two-electron integral symmetry is turned on.
 Leave Link  301 at Thu Feb  7 03:20:48 2019, MaxMem=   262144000 cpu:               0.1 elap:               0.0
 (Enter /scratch/SOFT/gaussian/g16_a03/g16/l302.exe)
 NPDir=0 NMtPBC=     1 NCelOv=     1 NCel=       1 NClECP=     1 NCelD=      1
         NCelK=      1 NCelE2=     1 NClLst=     1 CellRange=     0.0.
 One-electron integrals computed using PRISM.
 One-electron integral symmetry used in STVInt
 Entering OneElI...
 Calculate overlap and kinetic energy integrals
    NBasis =  58  MinDer = 0  MaxDer = 0
 Requested accuracy = 0.1000D-12
 Symmetry will be used
 PrmmSu-InSpLW:  IPartL=    0 NPrtUS=    1 NPrtUL=    1 DoSpLW=F IThBeg=    0 IThEnd=    0 NThAct=    1.
 PrsmSu:  NPrtUS=   1 ThrOK=F IAlg=1 NPAlg=1 LenDen=           0 ISkipM=0 DoSpLW=F IThBeg=    0 IThEnd=    0.
 Prism:   IPart=     0 DynPar=F LinDyn=F Incr=           2.
 PRISM was handed   262113210 working-precision words and   253 shell-pairs
 IPart=  0 NShTot=         157 NBatch=          36 AvBLen=         4.4
 PrSmSu:  NxtVal=              3.
 *** Overlap *** 
                1             2             3             4             5 
      1  0.100000D+01
      2  0.102601D+00  0.100000D+01
      3  0.529768D+00  0.754500D+00  0.100000D+01
      4  0.147813D+00  0.829409D+00  0.523317D+00  0.100000D+01
      5  0.000000D+00  0.000000D+00  0.000000D+00  0.000000D+00  0.100000D+01
      6  0.000000D+00  0.000000D+00  0.000000D+00  0.000000D+00  0.000000D+00
      7  0.000000D+00  0.000000D+00  0.000000D+00  0.000000D+00  0.000000D+00
      8  0.000000D+00  0.000000D+00  0.000000D+00  0.000000D+00  0.600184D+00
      9  0.000000D+00  0.000000D+00  0.000000D+00  0.000000D+00  0.000000D+00
     10  0.000000D+00  0.000000D+00  0.000000D+00  0.000000D+00  0.000000D+00
     11  0.000000D+00  0.000000D+00  0.000000D+00  0.000000D+00  0.204174D+00
     12  0.000000D+00  0.000000D+00  0.000000D+00  0.000000D+00  0.000000D+00
     13  0.000000D+00  0.000000D+00  0.000000D+00  0.000000D+00  0.000000D+00
     14  0.000000D+00  0.000000D+00  0.000000D+00  0.000000D+00  0.000000D+00
     15  0.000000D+00  0.000000D+00  0.000000D+00  0.000000D+00  0.000000D+00
     16  0.000000D+00  0.000000D+00  0.000000D+00  0.000000D+00  0.000000D+00
     17  0.000000D+00  0.000000D+00  0.000000D+00  0.000000D+00  0.000000D+00
     18  0.000000D+00  0.000000D+00  0.000000D+00  0.000000D+00  0.000000D+00
     19  0.000000D+00  0.000000D+00  0.000000D+00  0.000000D+00  0.000000D+00
     20  0.000000D+00  0.000000D+00  0.000000D+00  0.000000D+00  0.000000D+00
     21  0.000000D+00  0.000000D+00  0.000000D+00  0.000000D+00  0.000000D+00
     22  0.000000D+00  0.000000D+00  0.000000D+00  0.000000D+00  0.000000D+00
     23  0.000000D+00  0.000000D+00  0.000000D+00  0.000000D+00  0.000000D+00
     24  0.000000D+00  0.000000D+00  0.000000D+00  0.000000D+00  0.000000D+00
     25  0.000000D+00  0.000000D+00  0.000000D+00  0.000000D+00  0.000000D+00
     26  0.000000D+00  0.000000D+00  0.000000D+00  0.000000D+00  0.000000D+00
     27  0.000000D+00  0.000000D+00  0.000000D+00  0.000000D+00  0.000000D+00
     28  0.000000D+00  0.000000D+00  0.000000D+00  0.000000D+00  0.000000D+00
     29  0.000000D+00  0.000000D+00  0.000000D+00  0.000000D+00  0.000000D+00
     30  0.000000D+00  0.000000D+00  0.000000D+00  0.000000D+00  0.000000D+00
     31  0.140437D-01  0.233998D+00  0.939474D-01  0.323441D+00  0.000000D+00
     32  0.683112D-01  0.459858D+00  0.260641D+00  0.635969D+00  0.000000D+00
     33  0.583478D-01  0.427184D+00  0.227782D+00  0.700675D+00  0.000000D+00
     34  0.000000D+00  0.000000D+00  0.000000D+00  0.000000D+00  0.506594D-01
     35 -0.290156D-01 -0.239619D+00 -0.156641D+00 -0.150377D+00  0.000000D+00
     36  0.222645D-01  0.183866D+00  0.120195D+00  0.115388D+00  0.000000D+00
     37  0.000000D+00  0.000000D+00  0.000000D+00  0.000000D+00  0.127423D+00
     38 -0.108183D+00 -0.483346D+00 -0.356827D+00 -0.401241D+00  0.000000D+00
     39  0.830114D-01  0.370884D+00  0.273803D+00  0.307883D+00  0.000000D+00
     40  0.690288D-02  0.164014D-01  0.199474D-01  0.538438D-02  0.000000D+00
     41  0.000000D+00  0.000000D+00  0.000000D+00  0.000000D+00  0.113606D+00
     42 -0.103325D+00 -0.245501D+00 -0.298579D+00 -0.805953D-01  0.000000D+00
     43 -0.673277D-01 -0.159972D+00 -0.194558D+00 -0.525169D-01  0.000000D+00
     44  0.000000D+00  0.000000D+00  0.000000D+00  0.000000D+00 -0.148054D+00
     45  0.140437D-01  0.233998D+00  0.939474D-01  0.323441D+00  0.000000D+00
     46  0.683112D-01  0.459858D+00  0.260641D+00  0.635969D+00  0.000000D+00
     47  0.583478D-01  0.427184D+00  0.227782D+00  0.700675D+00  0.000000D+00
     48  0.000000D+00  0.000000D+00  0.000000D+00  0.000000D+00  0.506594D-01
     49  0.290156D-01  0.239619D+00  0.156641D+00  0.150377D+00  0.000000D+00
     50  0.222645D-01  0.183866D+00  0.120195D+00  0.115388D+00  0.000000D+00
     51  0.000000D+00  0.000000D+00  0.000000D+00  0.000000D+00  0.127423D+00
     52  0.108183D+00  0.483346D+00  0.356827D+00  0.401241D+00  0.000000D+00
     53  0.830114D-01  0.370884D+00  0.273803D+00  0.307883D+00  0.000000D+00
     54  0.690288D-02  0.164014D-01  0.199474D-01  0.538438D-02  0.000000D+00
     55  0.000000D+00  0.000000D+00  0.000000D+00  0.000000D+00  0.113606D+00
     56  0.103325D+00  0.245501D+00  0.298579D+00  0.805953D-01  0.000000D+00
     57 -0.673277D-01 -0.159972D+00 -0.194558D+00 -0.525169D-01  0.000000D+00
     58  0.000000D+00  0.000000D+00  0.000000D+00  0.000000D+00  0.148054D+00
                6             7             8             9            10 
      6  0.100000D+01
      7  0.000000D+00  0.100000D+01
      8  0.000000D+00  0.000000D+00  0.100000D+01
      9  0.600184D+00  0.000000D+00  0.000000D+00  0.100000D+01
     10  0.000000D+00  0.600184D+00  0.000000D+00  0.000000D+00  0.100000D+01
     11  0.000000D+00  0.000000D+00  0.650414D+00  0.000000D+00  0.000000D+00
     12  0.204174D+00  0.000000D+00  0.000000D+00  0.650414D+00  0.000000D+00
     13  0.000000D+00  0.204174D+00  0.000000D+00  0.000000D+00  0.650414D+00
     14  0.000000D+00  0.000000D+00  0.000000D+00  0.000000D+00  0.000000D+00
     15  0.000000D+00  0.000000D+00  0.000000D+00  0.000000D+00  0.000000D+00
     16  0.000000D+00  0.000000D+00  0.000000D+00  0.000000D+00  0.000000D+00
     17  0.000000D+00  0.000000D+00  0.000000D+00  0.000000D+00  0.000000D+00
     18  0.000000D+00  0.000000D+00  0.000000D+00  0.000000D+00  0.000000D+00
     19  0.000000D+00  0.000000D+00  0.000000D+00  0.000000D+00  0.000000D+00
     20  0.000000D+00  0.000000D+00  0.000000D+00  0.000000D+00  0.000000D+00
     21  0.000000D+00  0.000000D+00  0.000000D+00  0.000000D+00  0.000000D+00
     22  0.000000D+00  0.000000D+00  0.000000D+00  0.000000D+00  0.000000D+00
     23  0.000000D+00  0.000000D+00  0.000000D+00  0.000000D+00  0.000000D+00
     24  0.000000D+00  0.000000D+00  0.000000D+00  0.000000D+00  0.000000D+00
     25  0.000000D+00  0.000000D+00  0.000000D+00  0.000000D+00  0.000000D+00
     26  0.000000D+00  0.000000D+00  0.000000D+00  0.000000D+00  0.000000D+00
     27  0.000000D+00  0.000000D+00  0.000000D+00  0.000000D+00  0.000000D+00
     28  0.000000D+00  0.000000D+00  0.000000D+00  0.000000D+00  0.000000D+00
     29  0.000000D+00  0.000000D+00  0.000000D+00  0.000000D+00  0.000000D+00
     30  0.000000D+00  0.000000D+00  0.000000D+00  0.000000D+00  0.000000D+00
     31  0.878652D-01 -0.674213D-01  0.000000D+00  0.328129D+00 -0.251782D+00
     32  0.101151D+00 -0.776159D-01  0.000000D+00  0.328652D+00 -0.252184D+00
     33  0.300779D-01 -0.230796D-01  0.000000D+00  0.121562D+00 -0.932781D-01
     34  0.000000D+00  0.000000D+00  0.194571D+00  0.000000D+00  0.000000D+00
     35 -0.127910D+00  0.137021D+00  0.000000D+00 -0.172028D+00  0.281302D+00
     36  0.137021D+00 -0.544804D-01  0.000000D+00  0.281302D+00 -0.212791D-01
     37  0.000000D+00  0.000000D+00  0.402860D+00  0.000000D+00  0.000000D+00
     38 -0.418836D-01  0.129913D+00  0.000000D+00  0.271597D-03  0.308917D+00
     39  0.129913D+00  0.277367D-01  0.000000D+00  0.308917D+00  0.165820D+00
     40  0.107774D+00  0.114074D+00  0.000000D+00  0.192828D+00  0.237861D+00
     41  0.000000D+00  0.000000D+00  0.222755D+00  0.000000D+00  0.000000D+00
     42 -0.220107D+00  0.108013D+00  0.000000D+00 -0.154799D+00 -0.592791D-03
     43 -0.693975D-01  0.166857D+00  0.000000D+00  0.442812D-01  0.188777D+00
     44  0.000000D+00  0.000000D+00 -0.290300D+00  0.000000D+00  0.000000D+00
     45 -0.878652D-01 -0.674213D-01  0.000000D+00 -0.328129D+00 -0.251782D+00
     46 -0.101151D+00 -0.776159D-01  0.000000D+00 -0.328652D+00 -0.252184D+00
     47 -0.300779D-01 -0.230796D-01  0.000000D+00 -0.121562D+00 -0.932781D-01
     48  0.000000D+00  0.000000D+00  0.194571D+00  0.000000D+00  0.000000D+00
     49 -0.127910D+00 -0.137021D+00  0.000000D+00 -0.172028D+00 -0.281302D+00
     50 -0.137021D+00 -0.544804D-01  0.000000D+00 -0.281302D+00 -0.212791D-01
     51  0.000000D+00  0.000000D+00  0.402860D+00  0.000000D+00  0.000000D+00
     52 -0.418836D-01 -0.129913D+00  0.000000D+00  0.271597D-03 -0.308917D+00
     53 -0.129913D+00  0.277367D-01  0.000000D+00 -0.308917D+00  0.165820D+00
     54 -0.107774D+00  0.114074D+00  0.000000D+00 -0.192828D+00  0.237861D+00
     55  0.000000D+00  0.000000D+00  0.222755D+00  0.000000D+00  0.000000D+00
     56 -0.220107D+00 -0.108013D+00  0.000000D+00 -0.154799D+00  0.592791D-03
     57  0.693975D-01  0.166857D+00  0.000000D+00 -0.442812D-01  0.188777D+00
     58  0.000000D+00  0.000000D+00  0.290300D+00  0.000000D+00  0.000000D+00
               11            12            13            14            15 
     11  0.100000D+01
     12  0.000000D+00  0.100000D+01
     13  0.000000D+00  0.000000D+00  0.100000D+01
     14  0.000000D+00  0.000000D+00  0.000000D+00  0.100000D+01
     15  0.000000D+00  0.000000D+00  0.000000D+00  0.000000D+00  0.100000D+01
     16  0.000000D+00  0.000000D+00  0.000000D+00  0.000000D+00  0.000000D+00
     17  0.000000D+00  0.000000D+00  0.000000D+00  0.000000D+00  0.000000D+00
     18  0.000000D+00  0.000000D+00  0.000000D+00  0.000000D+00  0.000000D+00
     19  0.000000D+00  0.000000D+00  0.000000D+00  0.511638D+00  0.000000D+00
     20  0.000000D+00  0.000000D+00  0.000000D+00  0.000000D+00  0.511638D+00
     21  0.000000D+00  0.000000D+00  0.000000D+00  0.000000D+00  0.000000D+00
     22  0.000000D+00  0.000000D+00  0.000000D+00  0.000000D+00  0.000000D+00
     23  0.000000D+00  0.000000D+00  0.000000D+00  0.000000D+00  0.000000D+00
     24  0.000000D+00  0.000000D+00  0.000000D+00  0.000000D+00  0.000000D+00
     25  0.000000D+00  0.000000D+00  0.000000D+00  0.000000D+00  0.000000D+00
     26  0.000000D+00  0.000000D+00  0.000000D+00  0.000000D+00  0.000000D+00
     27  0.000000D+00  0.000000D+00  0.000000D+00  0.000000D+00  0.000000D+00
     28  0.000000D+00  0.000000D+00  0.000000D+00  0.000000D+00  0.000000D+00
     29  0.000000D+00  0.000000D+00  0.000000D+00  0.000000D+00  0.000000D+00
     30  0.000000D+00  0.000000D+00  0.000000D+00  0.000000D+00  0.000000D+00
     31  0.000000D+00  0.359538D+00 -0.275883D+00  0.767008D-02  0.000000D+00
     32  0.000000D+00  0.506605D+00 -0.388731D+00  0.311019D-02  0.000000D+00
     33  0.000000D+00  0.307691D+00 -0.236100D+00  0.319755D-03  0.000000D+00
     34  0.209874D+00  0.000000D+00  0.000000D+00  0.000000D+00 -0.728656D-01
     35  0.000000D+00  0.550279D-01  0.118818D+00 -0.717439D-01  0.000000D+00
     36  0.000000D+00  0.118818D+00  0.118702D+00 -0.711559D-01  0.000000D+00
     37  0.580270D+00  0.000000D+00  0.000000D+00  0.000000D+00 -0.682080D-01
     38  0.000000D+00  0.262366D+00  0.243936D+00 -0.573352D-01  0.000000D+00
     39  0.000000D+00  0.243936D+00  0.393091D+00 -0.741448D-01  0.000000D+00
     40  0.000000D+00  0.827267D-01  0.115710D+00 -0.171638D+00  0.000000D+00
     41  0.103454D+00  0.000000D+00  0.000000D+00  0.000000D+00 -0.543362D-01
     42  0.000000D+00  0.303222D-01 -0.787080D-01  0.740741D-01  0.000000D+00
     43  0.000000D+00  0.871705D-01  0.365661D-01 -0.146333D+00  0.000000D+00
     44 -0.134824D+00  0.000000D+00  0.000000D+00  0.000000D+00  0.172422D+00
     45  0.000000D+00 -0.359538D+00 -0.275883D+00  0.767008D-02  0.000000D+00
     46  0.000000D+00 -0.506605D+00 -0.388731D+00  0.311019D-02  0.000000D+00
     47  0.000000D+00 -0.307691D+00 -0.236100D+00  0.319755D-03  0.000000D+00
     48  0.209874D+00  0.000000D+00  0.000000D+00  0.000000D+00 -0.728656D-01
     49  0.000000D+00  0.550279D-01 -0.118818D+00  0.717439D-01  0.000000D+00
     50  0.000000D+00 -0.118818D+00  0.118702D+00 -0.711559D-01  0.000000D+00
     51  0.580270D+00  0.000000D+00  0.000000D+00  0.000000D+00 -0.682080D-01
     52  0.000000D+00  0.262366D+00 -0.243936D+00  0.573352D-01  0.000000D+00
     53  0.000000D+00 -0.243936D+00  0.393091D+00 -0.741448D-01  0.000000D+00
     54  0.000000D+00 -0.827267D-01  0.115710D+00 -0.171638D+00  0.000000D+00
     55  0.103454D+00  0.000000D+00  0.000000D+00  0.000000D+00 -0.543362D-01
     56  0.000000D+00  0.303222D-01  0.787080D-01 -0.740741D-01  0.000000D+00
     57  0.000000D+00 -0.871705D-01  0.365661D-01 -0.146333D+00  0.000000D+00
     58  0.134824D+00  0.000000D+00  0.000000D+00  0.000000D+00 -0.172422D+00
               16            17            18            19            20 
     16  0.100000D+01
     17  0.000000D+00  0.100000D+01
     18  0.000000D+00  0.000000D+00  0.100000D+01
     19  0.000000D+00  0.000000D+00  0.000000D+00  0.100000D+01
     20  0.000000D+00  0.000000D+00  0.000000D+00  0.000000D+00  0.100000D+01
     21  0.511638D+00  0.000000D+00  0.000000D+00  0.000000D+00  0.000000D+00
     22  0.000000D+00  0.511638D+00  0.000000D+00  0.000000D+00  0.000000D+00
     23  0.000000D+00  0.000000D+00  0.511638D+00  0.000000D+00  0.000000D+00
     24  0.000000D+00  0.000000D+00  0.000000D+00  0.000000D+00  0.000000D+00
     25  0.000000D+00  0.000000D+00  0.000000D+00  0.000000D+00  0.000000D+00
     26  0.000000D+00  0.000000D+00  0.000000D+00  0.000000D+00  0.000000D+00
     27  0.000000D+00  0.000000D+00  0.000000D+00  0.000000D+00  0.000000D+00
     28  0.000000D+00  0.000000D+00  0.000000D+00  0.000000D+00  0.000000D+00
     29  0.000000D+00  0.000000D+00  0.000000D+00  0.000000D+00  0.000000D+00
     30  0.000000D+00  0.000000D+00  0.000000D+00  0.000000D+00  0.000000D+00
     31 -0.114808D+00 -0.748106D-01  0.000000D+00  0.268237D-01  0.000000D+00
     32 -0.465544D-01 -0.303354D-01  0.000000D+00  0.137138D-01  0.000000D+00
     33 -0.478620D-02 -0.311875D-02  0.000000D+00  0.214040D-02  0.000000D+00
     34  0.000000D+00  0.000000D+00  0.949603D-01  0.000000D+00 -0.245071D+00
     35  0.180377D+00  0.700559D-01  0.000000D+00 -0.213157D+00  0.000000D+00
     36 -0.993597D-01 -0.126621D+00  0.000000D+00 -0.260914D+00  0.000000D+00
     37  0.000000D+00  0.000000D+00  0.888904D-01  0.000000D+00 -0.280437D+00
     38  0.218167D-01 -0.302291D-01  0.000000D+00 -0.229035D+00  0.000000D+00
     39  0.198120D-01 -0.450123D-01  0.000000D+00 -0.309987D+00  0.000000D+00
     40  0.740741D-01 -0.146333D+00  0.000000D+00 -0.196447D+00  0.000000D+00
     41  0.000000D+00  0.000000D+00  0.172422D+00  0.000000D+00  0.160624D-01
     42  0.102262D+00  0.760396D-01  0.000000D+00  0.153868D+00  0.000000D+00
     43  0.760396D-01  0.151638D-01  0.000000D+00 -0.250009D+00  0.000000D+00
     44  0.000000D+00  0.000000D+00 -0.146737D+00  0.000000D+00  0.310352D+00
     45  0.114808D+00 -0.748106D-01  0.000000D+00  0.268237D-01  0.000000D+00
     46  0.465544D-01 -0.303354D-01  0.000000D+00  0.137138D-01  0.000000D+00
     47  0.478620D-02 -0.311875D-02  0.000000D+00  0.214040D-02  0.000000D+00
     48  0.000000D+00  0.000000D+00 -0.949603D-01  0.000000D+00 -0.245071D+00
     49  0.180377D+00 -0.700559D-01  0.000000D+00  0.213157D+00  0.000000D+00
     50  0.993597D-01 -0.126621D+00  0.000000D+00 -0.260914D+00  0.000000D+00
     51  0.000000D+00  0.000000D+00 -0.888904D-01  0.000000D+00 -0.280437D+00
     52  0.218167D-01  0.302291D-01  0.000000D+00  0.229035D+00  0.000000D+00
     53 -0.198120D-01 -0.450123D-01  0.000000D+00 -0.309987D+00  0.000000D+00
     54 -0.740741D-01 -0.146333D+00  0.000000D+00 -0.196447D+00  0.000000D+00
     55  0.000000D+00  0.000000D+00 -0.172422D+00  0.000000D+00  0.160624D-01
     56  0.102262D+00 -0.760396D-01  0.000000D+00 -0.153868D+00  0.000000D+00
     57 -0.760396D-01  0.151638D-01  0.000000D+00 -0.250009D+00  0.000000D+00
     58  0.000000D+00  0.000000D+00 -0.146737D+00  0.000000D+00 -0.310352D+00
               21            22            23            24            25 
     21  0.100000D+01
     22  0.000000D+00  0.100000D+01
     23  0.000000D+00  0.000000D+00  0.100000D+01
     24  0.000000D+00  0.000000D+00  0.000000D+00  0.100000D+01
     25  0.000000D+00  0.000000D+00  0.000000D+00  0.000000D+00  0.100000D+01
     26  0.000000D+00  0.000000D+00  0.000000D+00  0.000000D+00  0.000000D+00
     27  0.000000D+00  0.000000D+00  0.000000D+00  0.000000D+00  0.000000D+00
     28  0.000000D+00  0.000000D+00  0.000000D+00  0.000000D+00  0.000000D+00
     29  0.000000D+00  0.000000D+00  0.000000D+00  0.000000D+00  0.000000D+00
     30  0.000000D+00  0.000000D+00  0.000000D+00  0.000000D+00  0.000000D+00
     31 -0.401506D+00 -0.261626D+00  0.000000D+00  0.840857D-01  0.000000D+00
     32 -0.205272D+00 -0.133758D+00  0.000000D+00  0.131352D-01  0.000000D+00
     33 -0.320382D-01 -0.208765D-01  0.000000D+00  0.544999D-03  0.000000D+00
     34  0.000000D+00  0.000000D+00  0.319382D+00  0.000000D+00  0.639724D-01
     35  0.185441D+00 -0.388557D-01  0.000000D+00  0.257251D-01  0.000000D+00
     36 -0.109606D-01 -0.215256D+00  0.000000D+00  0.136960D+00  0.000000D+00
     37  0.000000D+00  0.000000D+00  0.365473D+00  0.000000D+00  0.257811D-01
     38 -0.105741D-01 -0.189627D+00  0.000000D+00  0.451908D-01  0.000000D+00
     39  0.158400D+00 -0.134932D+00  0.000000D+00  0.284745D-01  0.000000D+00
     40  0.153868D+00 -0.250009D+00  0.000000D+00 -0.134229D-03  0.000000D+00
     41  0.000000D+00  0.000000D+00  0.310352D+00  0.000000D+00 -0.116277D+00
     42 -0.949417D-02 -0.634547D-01  0.000000D+00 -0.130986D+00  0.000000D+00
     43 -0.634547D-01  0.106267D-01  0.000000D+00  0.184077D+00  0.000000D+00
     44  0.000000D+00  0.000000D+00 -0.150255D+00  0.000000D+00 -0.168803D+00
     45  0.401506D+00 -0.261626D+00  0.000000D+00  0.840857D-01  0.000000D+00
     46  0.205272D+00 -0.133758D+00  0.000000D+00  0.131352D-01  0.000000D+00
     47  0.320382D-01 -0.208765D-01  0.000000D+00  0.544999D-03  0.000000D+00
     48  0.000000D+00  0.000000D+00 -0.319382D+00  0.000000D+00  0.639724D-01
     49  0.185441D+00  0.388557D-01  0.000000D+00 -0.257251D-01  0.000000D+00
     50  0.109606D-01 -0.215256D+00  0.000000D+00  0.136960D+00  0.000000D+00
     51  0.000000D+00  0.000000D+00 -0.365473D+00  0.000000D+00  0.257811D-01
     52 -0.105741D-01  0.189627D+00  0.000000D+00 -0.451908D-01  0.000000D+00
     53 -0.158400D+00 -0.134932D+00  0.000000D+00  0.284745D-01  0.000000D+00
     54 -0.153868D+00 -0.250009D+00  0.000000D+00 -0.134229D-03  0.000000D+00
     55  0.000000D+00  0.000000D+00 -0.310352D+00  0.000000D+00 -0.116277D+00
     56 -0.949417D-02  0.634547D-01  0.000000D+00  0.130986D+00  0.000000D+00
     57  0.634547D-01  0.106267D-01  0.000000D+00  0.184077D+00  0.000000D+00
     58  0.000000D+00  0.000000D+00 -0.150255D+00  0.000000D+00  0.168803D+00
               26            27            28            29            30 
     26  0.100000D+01
     27  0.000000D+00  0.100000D+01
     28  0.000000D+00  0.000000D+00  0.100000D+01
     29  0.000000D+00  0.000000D+00  0.000000D+00  0.100000D+01
     30  0.000000D+00  0.000000D+00  0.000000D+00  0.000000D+00  0.100000D+01
     31  0.998000D-01  0.178698D+00  0.000000D+00  0.000000D+00 -0.950744D-01
     32  0.155899D-01  0.279147D-01  0.000000D+00  0.000000D+00 -0.148517D-01
     33  0.646851D-03  0.115823D-02  0.000000D+00  0.000000D+00 -0.616222D-03
     34  0.000000D+00  0.000000D+00 -0.229093D+00 -0.182830D+00  0.000000D+00
     35 -0.210526D+00 -0.933610D-01  0.000000D+00  0.000000D+00 -0.112715D-01
     36 -0.151598D+00  0.981477D-01  0.000000D+00  0.000000D+00 -0.131641D+00
     37  0.000000D+00  0.000000D+00 -0.923253D-01 -0.736811D-01  0.000000D+00
     38 -0.435113D-01  0.363816D-01  0.000000D+00  0.000000D+00 -0.439168D-01
     39 -0.928092D-01 -0.172332D-01  0.000000D+00  0.000000D+00 -0.228389D-01
     40 -0.214244D+00  0.231944D-01  0.000000D+00  0.000000D+00 -0.185157D+00
     41  0.000000D+00  0.000000D+00 -0.852018D-01 -0.229682D+00  0.000000D+00
     42  0.456504D-01 -0.175791D-01  0.000000D+00  0.000000D+00 -0.449683D-01
     43 -0.112114D+00 -0.661779D-02  0.000000D+00  0.000000D+00  0.691666D-01
     44  0.000000D+00  0.000000D+00  0.219610D+00  0.511954D-01  0.000000D+00
     45 -0.998000D-01  0.178698D+00  0.000000D+00  0.000000D+00  0.950744D-01
     46 -0.155899D-01  0.279147D-01  0.000000D+00  0.000000D+00  0.148517D-01
     47 -0.646851D-03  0.115823D-02  0.000000D+00  0.000000D+00  0.616222D-03
     48  0.000000D+00  0.000000D+00  0.229093D+00 -0.182830D+00  0.000000D+00
     49 -0.210526D+00  0.933610D-01  0.000000D+00  0.000000D+00 -0.112715D-01
     50  0.151598D+00  0.981477D-01  0.000000D+00  0.000000D+00  0.131641D+00
     51  0.000000D+00  0.000000D+00  0.923253D-01 -0.736811D-01  0.000000D+00
     52 -0.435113D-01 -0.363816D-01  0.000000D+00  0.000000D+00 -0.439168D-01
     53  0.928092D-01 -0.172332D-01  0.000000D+00  0.000000D+00  0.228389D-01
     54  0.214244D+00  0.231944D-01  0.000000D+00  0.000000D+00  0.185157D+00
     55  0.000000D+00  0.000000D+00  0.852018D-01 -0.229682D+00  0.000000D+00
     56  0.456504D-01  0.175791D-01  0.000000D+00  0.000000D+00 -0.449683D-01
     57  0.112114D+00 -0.661779D-02  0.000000D+00  0.000000D+00 -0.691666D-01
     58  0.000000D+00  0.000000D+00  0.219610D+00 -0.511954D-01  0.000000D+00
               31            32            33            34            35 
     31  0.100000D+01
     32  0.706285D+00  0.100000D+01
     33  0.373528D+00  0.788878D+00  0.100000D+01
     34  0.000000D+00  0.000000D+00  0.000000D+00  0.100000D+01
     35  0.000000D+00  0.000000D+00  0.000000D+00  0.000000D+00  0.100000D+01
     36  0.000000D+00  0.000000D+00  0.000000D+00  0.000000D+00  0.000000D+00
     37  0.000000D+00  0.000000D+00  0.000000D+00  0.614924D+00  0.000000D+00
     38  0.000000D+00  0.000000D+00  0.000000D+00  0.000000D+00  0.614924D+00
     39  0.000000D+00  0.000000D+00  0.000000D+00  0.000000D+00  0.000000D+00
     40  0.000000D+00  0.000000D+00  0.000000D+00  0.000000D+00  0.000000D+00
     41  0.000000D+00  0.000000D+00  0.000000D+00  0.000000D+00  0.000000D+00
     42  0.000000D+00  0.000000D+00  0.000000D+00  0.000000D+00  0.000000D+00
     43  0.000000D+00  0.000000D+00  0.000000D+00  0.000000D+00  0.000000D+00
     44  0.000000D+00  0.000000D+00  0.000000D+00  0.000000D+00  0.000000D+00
     45  0.739709D-02  0.907484D-01  0.175863D+00  0.000000D+00 -0.165212D-01
     46  0.907484D-01  0.274144D+00  0.424236D+00  0.000000D+00 -0.106184D+00
     47  0.175863D+00  0.424236D+00  0.665024D+00  0.000000D+00 -0.759917D-01
     48  0.000000D+00  0.000000D+00  0.000000D+00  0.373988D-02  0.000000D+00
     49  0.165212D-01  0.106184D+00  0.759917D-01  0.000000D+00 -0.380623D-01
     50  0.000000D+00  0.000000D+00  0.000000D+00  0.000000D+00  0.000000D+00
     51  0.000000D+00  0.000000D+00  0.000000D+00  0.548957D-01  0.000000D+00
     52  0.193175D+00  0.390271D+00  0.282930D+00  0.000000D+00 -0.210367D+00
     53  0.000000D+00  0.000000D+00  0.000000D+00  0.000000D+00  0.000000D+00
     54 -0.287403D-01 -0.582027D-01 -0.154830D-01  0.000000D+00  0.584703D-01
     55  0.000000D+00  0.000000D+00  0.000000D+00  0.000000D+00  0.000000D+00
     56  0.000000D+00  0.000000D+00  0.000000D+00  0.000000D+00  0.000000D+00
     57 -0.497797D-01 -0.100810D+00 -0.268173D-01  0.000000D+00  0.101274D+00
     58  0.000000D+00  0.000000D+00  0.000000D+00  0.266871D-01  0.000000D+00
               36            37            38            39            40 
     36  0.100000D+01
     37  0.000000D+00  0.100000D+01
     38  0.000000D+00  0.000000D+00  0.100000D+01
     39  0.614924D+00  0.000000D+00  0.000000D+00  0.100000D+01
     40  0.000000D+00  0.000000D+00  0.000000D+00  0.000000D+00  0.100000D+01
     41  0.000000D+00  0.000000D+00  0.000000D+00  0.000000D+00  0.000000D+00
     42  0.000000D+00  0.000000D+00  0.000000D+00  0.000000D+00  0.000000D+00
     43  0.000000D+00  0.000000D+00  0.000000D+00  0.000000D+00  0.000000D+00
     44  0.000000D+00  0.000000D+00  0.000000D+00  0.000000D+00  0.000000D+00
     45  0.000000D+00  0.000000D+00 -0.193175D+00  0.000000D+00 -0.287403D-01
     46  0.000000D+00  0.000000D+00 -0.390271D+00  0.000000D+00 -0.582027D-01
     47  0.000000D+00  0.000000D+00 -0.282930D+00  0.000000D+00 -0.154830D-01
     48  0.000000D+00  0.548957D-01  0.000000D+00  0.000000D+00  0.000000D+00
     49  0.000000D+00  0.000000D+00 -0.210367D+00  0.000000D+00 -0.584703D-01
     50  0.373988D-02  0.000000D+00  0.000000D+00  0.548957D-01  0.000000D+00
     51  0.000000D+00  0.214132D+00  0.000000D+00  0.000000D+00  0.000000D+00
     52  0.000000D+00  0.000000D+00 -0.445892D+00  0.000000D+00 -0.874723D-01
     53  0.548957D-01  0.000000D+00  0.000000D+00  0.214132D+00  0.000000D+00
     54  0.000000D+00  0.000000D+00  0.874723D-01  0.000000D+00  0.612264D-01
     55  0.000000D+00  0.000000D+00  0.000000D+00  0.000000D+00  0.000000D+00
     56  0.266871D-01  0.000000D+00  0.000000D+00  0.120753D+00  0.000000D+00
     57  0.000000D+00  0.000000D+00  0.151506D+00  0.000000D+00  0.800346D-01
     58  0.000000D+00  0.120753D+00  0.000000D+00  0.000000D+00  0.000000D+00
               41            42            43            44            45 
     41  0.100000D+01
     42  0.000000D+00  0.100000D+01
     43  0.000000D+00  0.000000D+00  0.100000D+01
     44  0.000000D+00  0.000000D+00  0.000000D+00  0.100000D+01
     45  0.000000D+00  0.000000D+00 -0.497797D-01  0.000000D+00  0.100000D+01
     46  0.000000D+00  0.000000D+00 -0.100810D+00  0.000000D+00  0.706285D+00
     47  0.000000D+00  0.000000D+00 -0.268173D-01  0.000000D+00  0.373528D+00
     48  0.000000D+00  0.000000D+00  0.000000D+00 -0.266871D-01  0.000000D+00
     49  0.000000D+00  0.000000D+00 -0.101274D+00  0.000000D+00  0.000000D+00
     50  0.000000D+00 -0.266871D-01  0.000000D+00  0.000000D+00  0.000000D+00
     51  0.000000D+00  0.000000D+00  0.000000D+00 -0.120753D+00  0.000000D+00
     52  0.000000D+00  0.000000D+00 -0.151506D+00  0.000000D+00  0.000000D+00
     53  0.000000D+00 -0.120753D+00  0.000000D+00  0.000000D+00  0.000000D+00
     54  0.000000D+00  0.000000D+00  0.800346D-01  0.000000D+00  0.000000D+00
     55  0.150184D-01  0.000000D+00  0.000000D+00  0.000000D+00  0.000000D+00
     56  0.000000D+00 -0.111091D+00  0.000000D+00  0.000000D+00  0.000000D+00
     57  0.000000D+00  0.000000D+00  0.153642D+00  0.000000D+00  0.000000D+00
     58  0.000000D+00  0.000000D+00  0.000000D+00 -0.111091D+00  0.000000D+00
               46            47            48            49            50 
     46  0.100000D+01
     47  0.788878D+00  0.100000D+01
     48  0.000000D+00  0.000000D+00  0.100000D+01
     49  0.000000D+00  0.000000D+00  0.000000D+00  0.100000D+01
     50  0.000000D+00  0.000000D+00  0.000000D+00  0.000000D+00  0.100000D+01
     51  0.000000D+00  0.000000D+00  0.614924D+00  0.000000D+00  0.000000D+00
     52  0.000000D+00  0.000000D+00  0.000000D+00  0.614924D+00  0.000000D+00
     53  0.000000D+00  0.000000D+00  0.000000D+00  0.000000D+00  0.614924D+00
     54  0.000000D+00  0.000000D+00  0.000000D+00  0.000000D+00  0.000000D+00
     55  0.000000D+00  0.000000D+00  0.000000D+00  0.000000D+00  0.000000D+00
     56  0.000000D+00  0.000000D+00  0.000000D+00  0.000000D+00  0.000000D+00
     57  0.000000D+00  0.000000D+00  0.000000D+00  0.000000D+00  0.000000D+00
     58  0.000000D+00  0.000000D+00  0.000000D+00  0.000000D+00  0.000000D+00
               51            52            53            54            55 
     51  0.100000D+01
     52  0.000000D+00  0.100000D+01
     53  0.000000D+00  0.000000D+00  0.100000D+01
     54  0.000000D+00  0.000000D+00  0.000000D+00  0.100000D+01
     55  0.000000D+00  0.000000D+00  0.000000D+00  0.000000D+00  0.100000D+01
     56  0.000000D+00  0.000000D+00  0.000000D+00  0.000000D+00  0.000000D+00
     57  0.000000D+00  0.000000D+00  0.000000D+00  0.000000D+00  0.000000D+00
     58  0.000000D+00  0.000000D+00  0.000000D+00  0.000000D+00  0.000000D+00
               56            57            58 
     56  0.100000D+01
     57  0.000000D+00  0.100000D+01
     58  0.000000D+00  0.000000D+00  0.100000D+01
 *** Kinetic Energy *** 
                1             2             3             4             5 
      1  0.303209D+02
      2 -0.336113D+01  0.153670D+01
      3  0.236375D+01  0.672523D+00  0.262800D+01
      4  0.102972D+00  0.432874D+00  0.329447D+00  0.357600D+00
      5  0.000000D+00  0.000000D+00  0.000000D+00  0.000000D+00  0.791554D+01
      6  0.000000D+00  0.000000D+00  0.000000D+00  0.000000D+00  0.000000D+00
      7  0.000000D+00  0.000000D+00  0.000000D+00  0.000000D+00  0.000000D+00
      8  0.000000D+00  0.000000D+00  0.000000D+00  0.000000D+00  0.166870D+01
      9  0.000000D+00  0.000000D+00  0.000000D+00  0.000000D+00  0.000000D+00
     10  0.000000D+00  0.000000D+00  0.000000D+00  0.000000D+00  0.000000D+00
     11  0.000000D+00  0.000000D+00  0.000000D+00  0.000000D+00  0.200721D+00
     12  0.000000D+00  0.000000D+00  0.000000D+00  0.000000D+00  0.000000D+00
     13  0.000000D+00  0.000000D+00  0.000000D+00  0.000000D+00  0.000000D+00
     14  0.000000D+00  0.000000D+00  0.000000D+00  0.000000D+00  0.000000D+00
     15  0.000000D+00  0.000000D+00  0.000000D+00  0.000000D+00  0.000000D+00
     16  0.000000D+00  0.000000D+00  0.000000D+00  0.000000D+00  0.000000D+00
     17  0.000000D+00  0.000000D+00  0.000000D+00  0.000000D+00  0.000000D+00
     18  0.000000D+00  0.000000D+00  0.000000D+00  0.000000D+00  0.000000D+00
     19  0.000000D+00  0.000000D+00  0.000000D+00  0.000000D+00  0.000000D+00
     20  0.000000D+00  0.000000D+00  0.000000D+00  0.000000D+00  0.000000D+00
     21  0.000000D+00  0.000000D+00  0.000000D+00  0.000000D+00  0.000000D+00
     22  0.000000D+00  0.000000D+00  0.000000D+00  0.000000D+00  0.000000D+00
     23  0.000000D+00  0.000000D+00  0.000000D+00  0.000000D+00  0.000000D+00
     24  0.000000D+00  0.000000D+00  0.000000D+00  0.000000D+00  0.000000D+00
     25  0.000000D+00  0.000000D+00  0.000000D+00  0.000000D+00  0.000000D+00
     26  0.000000D+00  0.000000D+00  0.000000D+00  0.000000D+00  0.000000D+00
     27  0.000000D+00  0.000000D+00  0.000000D+00  0.000000D+00  0.000000D+00
     28  0.000000D+00  0.000000D+00  0.000000D+00  0.000000D+00  0.000000D+00
     29  0.000000D+00  0.000000D+00  0.000000D+00  0.000000D+00  0.000000D+00
     30  0.000000D+00  0.000000D+00  0.000000D+00  0.000000D+00  0.000000D+00
     31 -0.501490D-01  0.341167D-01 -0.107128D+00  0.112299D+00  0.000000D+00
     32  0.218102D-01  0.163884D+00  0.906720D-01  0.186590D+00  0.000000D+00
     33  0.139756D-01  0.925898D-01  0.527646D-01  0.128099D+00  0.000000D+00
     34  0.000000D+00  0.000000D+00  0.000000D+00  0.000000D+00 -0.286970D-01
     35  0.940699D-01 -0.268381D+00 -0.922868D-02 -0.113840D+00  0.000000D+00
     36 -0.721824D-01  0.205936D+00  0.708141D-02  0.873521D-01  0.000000D+00
     37  0.000000D+00  0.000000D+00  0.000000D+00  0.000000D+00  0.123056D+00
     38 -0.106701D+00 -0.407198D+00 -0.339515D+00 -0.241036D+00  0.000000D+00
     39  0.818743D-01  0.312454D+00  0.260519D+00  0.184954D+00  0.000000D+00
     40  0.655352D-02  0.314997D-01  0.373416D-01  0.604601D-02  0.000000D+00
     41  0.000000D+00  0.000000D+00  0.000000D+00  0.000000D+00  0.193595D+00
     42 -0.980953D-01 -0.471499D+00 -0.558941D+00 -0.904988D-01  0.000000D+00
     43 -0.639201D-01 -0.307235D+00 -0.364213D+00 -0.589701D-01  0.000000D+00
     44  0.000000D+00  0.000000D+00  0.000000D+00  0.000000D+00 -0.252297D+00
     45 -0.501490D-01  0.341167D-01 -0.107128D+00  0.112299D+00  0.000000D+00
     46  0.218102D-01  0.163884D+00  0.906720D-01  0.186590D+00  0.000000D+00
     47  0.139756D-01  0.925898D-01  0.527646D-01  0.128099D+00  0.000000D+00
     48  0.000000D+00  0.000000D+00  0.000000D+00  0.000000D+00 -0.286970D-01
     49 -0.940699D-01  0.268381D+00  0.922868D-02  0.113840D+00  0.000000D+00
     50 -0.721824D-01  0.205936D+00  0.708141D-02  0.873521D-01  0.000000D+00
     51  0.000000D+00  0.000000D+00  0.000000D+00  0.000000D+00  0.123056D+00
     52  0.106701D+00  0.407198D+00  0.339515D+00  0.241036D+00  0.000000D+00
     53  0.818743D-01  0.312454D+00  0.260519D+00  0.184954D+00  0.000000D+00
     54  0.655352D-02  0.314997D-01  0.373416D-01  0.604601D-02  0.000000D+00
     55  0.000000D+00  0.000000D+00  0.000000D+00  0.000000D+00  0.193595D+00
     56  0.980953D-01  0.471499D+00  0.558941D+00  0.904988D-01  0.000000D+00
     57 -0.639201D-01 -0.307235D+00 -0.364213D+00 -0.589701D-01  0.000000D+00
     58  0.000000D+00  0.000000D+00  0.000000D+00  0.000000D+00  0.252297D+00
                6             7             8             9            10 
      6  0.791554D+01
      7  0.000000D+00  0.791554D+01
      8  0.000000D+00  0.000000D+00  0.178900D+01
      9  0.166870D+01  0.000000D+00  0.000000D+00  0.178900D+01
     10  0.000000D+00  0.166870D+01  0.000000D+00  0.000000D+00  0.178900D+01
     11  0.000000D+00  0.000000D+00  0.535732D+00  0.000000D+00  0.000000D+00
     12  0.200721D+00  0.000000D+00  0.000000D+00  0.535732D+00  0.000000D+00
     13  0.000000D+00  0.200721D+00  0.000000D+00  0.000000D+00  0.535732D+00
     14  0.000000D+00  0.000000D+00  0.000000D+00  0.000000D+00  0.000000D+00
     15  0.000000D+00  0.000000D+00  0.000000D+00  0.000000D+00  0.000000D+00
     16  0.000000D+00  0.000000D+00  0.000000D+00  0.000000D+00  0.000000D+00
     17  0.000000D+00  0.000000D+00  0.000000D+00  0.000000D+00  0.000000D+00
     18  0.000000D+00  0.000000D+00  0.000000D+00  0.000000D+00  0.000000D+00
     19  0.000000D+00  0.000000D+00  0.000000D+00  0.000000D+00  0.000000D+00
     20  0.000000D+00  0.000000D+00  0.000000D+00  0.000000D+00  0.000000D+00
     21  0.000000D+00  0.000000D+00  0.000000D+00  0.000000D+00  0.000000D+00
     22  0.000000D+00  0.000000D+00  0.000000D+00  0.000000D+00  0.000000D+00
     23  0.000000D+00  0.000000D+00  0.000000D+00  0.000000D+00  0.000000D+00
     24  0.000000D+00  0.000000D+00  0.000000D+00  0.000000D+00  0.000000D+00
     25  0.000000D+00  0.000000D+00  0.000000D+00  0.000000D+00  0.000000D+00
     26  0.000000D+00  0.000000D+00  0.000000D+00  0.000000D+00  0.000000D+00
     27  0.000000D+00  0.000000D+00  0.000000D+00  0.000000D+00  0.000000D+00
     28  0.000000D+00  0.000000D+00  0.000000D+00  0.000000D+00  0.000000D+00
     29  0.000000D+00  0.000000D+00  0.000000D+00  0.000000D+00  0.000000D+00
     30  0.000000D+00  0.000000D+00  0.000000D+00  0.000000D+00  0.000000D+00
     31 -0.206372D-01  0.158355D-01  0.000000D+00  0.310474D+00 -0.238235D+00
     32  0.925632D-01 -0.710262D-01  0.000000D+00  0.263933D+00 -0.202523D+00
     33  0.129709D-01 -0.995295D-02  0.000000D+00  0.484002D-01 -0.371388D-01
     34  0.000000D+00  0.000000D+00  0.185188D+00  0.000000D+00  0.000000D+00
     35 -0.237965D+00  0.160577D+00  0.000000D+00 -0.511524D+00  0.534606D+00
     36  0.160577D+00 -0.151912D+00  0.000000D+00  0.534606D+00 -0.225029D+00
     37  0.000000D+00  0.000000D+00  0.345851D+00  0.000000D+00  0.000000D+00
     38 -0.153853D+00  0.212480D+00  0.000000D+00 -0.202340D+00  0.420642D+00
     39  0.212480D+00 -0.399855D-01  0.000000D+00  0.420642D+00  0.230814D-01
     40  0.216483D+00  0.169203D+00  0.000000D+00  0.375925D+00  0.420646D+00
     41  0.000000D+00  0.000000D+00  0.409401D+00  0.000000D+00  0.000000D+00
     42 -0.866448D+00  0.561102D+00  0.000000D+00 -0.606718D+00  0.246154D+00
     43 -0.438440D+00  0.530021D+00  0.000000D+00 -0.128574D+00  0.508059D+00
     44  0.000000D+00  0.000000D+00 -0.533542D+00  0.000000D+00  0.000000D+00
     45  0.206372D-01  0.158355D-01  0.000000D+00 -0.310474D+00 -0.238235D+00
     46 -0.925632D-01 -0.710262D-01  0.000000D+00 -0.263933D+00 -0.202523D+00
     47 -0.129709D-01 -0.995295D-02  0.000000D+00 -0.484002D-01 -0.371388D-01
     48  0.000000D+00  0.000000D+00  0.185188D+00  0.000000D+00  0.000000D+00
     49 -0.237965D+00 -0.160577D+00  0.000000D+00 -0.511524D+00 -0.534606D+00
     50 -0.160577D+00 -0.151912D+00  0.000000D+00 -0.534606D+00 -0.225029D+00
     51  0.000000D+00  0.000000D+00  0.345851D+00  0.000000D+00  0.000000D+00
     52 -0.153853D+00 -0.212480D+00  0.000000D+00 -0.202340D+00 -0.420642D+00
     53 -0.212480D+00 -0.399855D-01  0.000000D+00 -0.420642D+00  0.230814D-01
     54 -0.216483D+00  0.169203D+00  0.000000D+00 -0.375925D+00  0.420646D+00
     55  0.000000D+00  0.000000D+00  0.409401D+00  0.000000D+00  0.000000D+00
     56 -0.866448D+00 -0.561102D+00  0.000000D+00 -0.606718D+00 -0.246154D+00
     57  0.438440D+00  0.530021D+00  0.000000D+00  0.128574D+00  0.508059D+00
     58  0.000000D+00  0.000000D+00  0.533542D+00  0.000000D+00  0.000000D+00
               11            12            13            14            15 
     11  0.535000D+00
     12  0.000000D+00  0.535000D+00
     13  0.000000D+00  0.000000D+00  0.535000D+00
     14  0.000000D+00  0.000000D+00  0.000000D+00  0.809900D+01
     15  0.000000D+00  0.000000D+00  0.000000D+00  0.000000D+00  0.809900D+01
     16  0.000000D+00  0.000000D+00  0.000000D+00  0.000000D+00  0.000000D+00
     17  0.000000D+00  0.000000D+00  0.000000D+00  0.000000D+00  0.000000D+00
     18  0.000000D+00  0.000000D+00  0.000000D+00  0.000000D+00  0.000000D+00
     19  0.000000D+00  0.000000D+00  0.000000D+00  0.180650D+01  0.000000D+00
     20  0.000000D+00  0.000000D+00  0.000000D+00  0.000000D+00  0.180650D+01
     21  0.000000D+00  0.000000D+00  0.000000D+00  0.000000D+00  0.000000D+00
     22  0.000000D+00  0.000000D+00  0.000000D+00  0.000000D+00  0.000000D+00
     23  0.000000D+00  0.000000D+00  0.000000D+00  0.000000D+00  0.000000D+00
     24  0.000000D+00  0.000000D+00  0.000000D+00  0.000000D+00  0.000000D+00
     25  0.000000D+00  0.000000D+00  0.000000D+00  0.000000D+00  0.000000D+00
     26  0.000000D+00  0.000000D+00  0.000000D+00  0.000000D+00  0.000000D+00
     27  0.000000D+00  0.000000D+00  0.000000D+00  0.000000D+00  0.000000D+00
     28  0.000000D+00  0.000000D+00  0.000000D+00  0.000000D+00  0.000000D+00
     29  0.000000D+00  0.000000D+00  0.000000D+00  0.000000D+00  0.000000D+00
     30  0.000000D+00  0.000000D+00  0.000000D+00  0.000000D+00  0.000000D+00
     31  0.000000D+00  0.252736D+00 -0.193931D+00  0.923373D-02  0.000000D+00
     32  0.000000D+00  0.273833D+00 -0.210119D+00  0.461681D-02  0.000000D+00
     33  0.000000D+00  0.974119D-01 -0.747467D-01  0.200590D-03  0.000000D+00
     34  0.149221D+00  0.000000D+00  0.000000D+00  0.000000D+00 -0.942435D-01
     35  0.000000D+00 -0.183997D-01  0.128620D+00 -0.122400D+00  0.000000D+00
     36  0.000000D+00  0.128620D+00  0.505276D-01 -0.693141D-01  0.000000D+00
     37  0.330509D+00  0.000000D+00  0.000000D+00  0.000000D+00 -0.111124D+00
     38  0.000000D+00  0.617432D-01  0.206232D+00 -0.974074D-01  0.000000D+00
     39  0.000000D+00  0.206232D+00  0.172262D+00 -0.117730D+00  0.000000D+00
     40  0.000000D+00  0.882628D-01  0.119686D+00 -0.661253D+00  0.000000D+00
     41  0.108203D+00  0.000000D+00  0.000000D+00  0.000000D+00 -0.287443D+00
     42  0.000000D+00  0.568345D-02 -0.623468D-01  0.200649D+00  0.000000D+00
     43  0.000000D+00  0.742098D-01  0.512597D-01 -0.493495D+00  0.000000D+00
     44 -0.141013D+00  0.000000D+00  0.000000D+00  0.000000D+00  0.553097D+00
     45  0.000000D+00 -0.252736D+00 -0.193931D+00  0.923373D-02  0.000000D+00
     46  0.000000D+00 -0.273833D+00 -0.210119D+00  0.461681D-02  0.000000D+00
     47  0.000000D+00 -0.974119D-01 -0.747467D-01  0.200590D-03  0.000000D+00
     48  0.149221D+00  0.000000D+00  0.000000D+00  0.000000D+00 -0.942435D-01
     49  0.000000D+00 -0.183997D-01 -0.128620D+00  0.122400D+00  0.000000D+00
     50  0.000000D+00 -0.128620D+00  0.505276D-01 -0.693141D-01  0.000000D+00
     51  0.330509D+00  0.000000D+00  0.000000D+00  0.000000D+00 -0.111124D+00
     52  0.000000D+00  0.617432D-01 -0.206232D+00  0.974074D-01  0.000000D+00
     53  0.000000D+00 -0.206232D+00  0.172262D+00 -0.117730D+00  0.000000D+00
     54  0.000000D+00 -0.882628D-01  0.119686D+00 -0.661253D+00  0.000000D+00
     55  0.108203D+00  0.000000D+00  0.000000D+00  0.000000D+00 -0.287443D+00
     56  0.000000D+00  0.568345D-02  0.623468D-01 -0.200649D+00  0.000000D+00
     57  0.000000D+00 -0.742098D-01  0.512597D-01 -0.493495D+00  0.000000D+00
     58  0.141013D+00  0.000000D+00  0.000000D+00  0.000000D+00 -0.553097D+00
               16            17            18            19            20 
     16  0.809900D+01
     17  0.000000D+00  0.809900D+01
     18  0.000000D+00  0.000000D+00  0.809900D+01
     19  0.000000D+00  0.000000D+00  0.000000D+00  0.225750D+01
     20  0.000000D+00  0.000000D+00  0.000000D+00  0.000000D+00  0.225750D+01
     21  0.180650D+01  0.000000D+00  0.000000D+00  0.000000D+00  0.000000D+00
     22  0.000000D+00  0.180650D+01  0.000000D+00  0.000000D+00  0.000000D+00
     23  0.000000D+00  0.000000D+00  0.180650D+01  0.000000D+00  0.000000D+00
     24  0.000000D+00  0.000000D+00  0.000000D+00  0.000000D+00  0.000000D+00
     25  0.000000D+00  0.000000D+00  0.000000D+00  0.000000D+00  0.000000D+00
     26  0.000000D+00  0.000000D+00  0.000000D+00  0.000000D+00  0.000000D+00
     27  0.000000D+00  0.000000D+00  0.000000D+00  0.000000D+00  0.000000D+00
     28  0.000000D+00  0.000000D+00  0.000000D+00  0.000000D+00  0.000000D+00
     29  0.000000D+00  0.000000D+00  0.000000D+00  0.000000D+00  0.000000D+00
     30  0.000000D+00  0.000000D+00  0.000000D+00  0.000000D+00  0.000000D+00
     31 -0.138214D+00 -0.900618D-01  0.000000D+00  0.491467D-01  0.000000D+00
     32 -0.691059D-01 -0.450303D-01  0.000000D+00  0.167244D-01  0.000000D+00
     33 -0.300250D-02 -0.195647D-02  0.000000D+00  0.122136D-02  0.000000D+00
     34  0.000000D+00  0.000000D+00  0.122821D+00  0.000000D+00 -0.456191D+00
     35  0.676462D+00  0.379381D+00  0.000000D+00 -0.422225D+00  0.000000D+00
     36 -0.468563D+00 -0.385353D+00  0.000000D+00 -0.466162D+00  0.000000D+00
     37  0.000000D+00  0.000000D+00  0.144820D+00  0.000000D+00 -0.371709D+00
     38  0.953713D-01 -0.102648D-01  0.000000D+00 -0.312312D+00  0.000000D+00
     39 -0.136297D-01 -0.103248D+00  0.000000D+00 -0.404173D+00  0.000000D+00
     40  0.200649D+00 -0.493495D+00  0.000000D+00 -0.711587D+00  0.000000D+00
     41  0.000000D+00  0.000000D+00  0.553097D+00  0.000000D+00 -0.162009D+00
     42  0.768217D+00  0.604473D+00  0.000000D+00  0.378626D+00  0.000000D+00
     43  0.604473D+00  0.170441D+00  0.000000D+00 -0.661366D+00  0.000000D+00
     44  0.000000D+00  0.000000D+00 -0.583847D+00  0.000000D+00  0.804592D+00
     45  0.138214D+00 -0.900618D-01  0.000000D+00  0.491467D-01  0.000000D+00
     46  0.691059D-01 -0.450303D-01  0.000000D+00  0.167244D-01  0.000000D+00
     47  0.300250D-02 -0.195647D-02  0.000000D+00  0.122136D-02  0.000000D+00
     48  0.000000D+00  0.000000D+00 -0.122821D+00  0.000000D+00 -0.456191D+00
     49  0.676462D+00 -0.379381D+00  0.000000D+00  0.422225D+00  0.000000D+00
     50  0.468563D+00 -0.385353D+00  0.000000D+00 -0.466162D+00  0.000000D+00
     51  0.000000D+00  0.000000D+00 -0.144820D+00  0.000000D+00 -0.371709D+00
     52  0.953713D-01  0.102648D-01  0.000000D+00  0.312312D+00  0.000000D+00
     53  0.136297D-01 -0.103248D+00  0.000000D+00 -0.404173D+00  0.000000D+00
     54 -0.200649D+00 -0.493495D+00  0.000000D+00 -0.711587D+00  0.000000D+00
     55  0.000000D+00  0.000000D+00 -0.553097D+00  0.000000D+00 -0.162009D+00
     56  0.768217D+00 -0.604473D+00  0.000000D+00 -0.378626D+00  0.000000D+00
     57 -0.604473D+00  0.170441D+00  0.000000D+00 -0.661366D+00  0.000000D+00
     58  0.000000D+00  0.000000D+00 -0.583847D+00  0.000000D+00 -0.804592D+00
               21            22            23            24            25 
     21  0.225750D+01
     22  0.000000D+00  0.225750D+01
     23  0.000000D+00  0.000000D+00  0.225750D+01
     24  0.000000D+00  0.000000D+00  0.000000D+00  0.642600D+01
     25  0.000000D+00  0.000000D+00  0.000000D+00  0.000000D+00  0.642600D+01
     26  0.000000D+00  0.000000D+00  0.000000D+00  0.000000D+00  0.000000D+00
     27  0.000000D+00  0.000000D+00  0.000000D+00  0.000000D+00  0.000000D+00
     28  0.000000D+00  0.000000D+00  0.000000D+00  0.000000D+00  0.000000D+00
     29  0.000000D+00  0.000000D+00  0.000000D+00  0.000000D+00  0.000000D+00
     30  0.000000D+00  0.000000D+00  0.000000D+00  0.000000D+00  0.000000D+00
     31 -0.735644D+00 -0.479355D+00  0.000000D+00  0.251827D+00  0.000000D+00
     32 -0.250337D+00 -0.163123D+00  0.000000D+00  0.255267D-01  0.000000D+00
     33 -0.182818D-01 -0.119126D-01  0.000000D+00  0.438373D-03  0.000000D+00
[...]
  44        6D-2        0.00000   0.00000   0.00000   0.00001
  45 3   H  1S         -0.00000   0.00000   0.00000   0.00000   0.06123
  46        2S         -0.00000  -0.00000   0.00001   0.00000   0.07394
  47        3S         -0.00000  -0.00000   0.00003   0.00000   0.03272
  48        4PX        -0.00000  -0.00000  -0.00000   0.00000   0.00000
  49        4PY         0.00000   0.00000  -0.00000   0.00000   0.00000
  50        4PZ         0.00000   0.00000  -0.00000   0.00000   0.00000
  51        5PX        -0.00000   0.00000  -0.00000   0.00000   0.00000
  52        5PY         0.00000   0.00000  -0.00000   0.00000   0.00000
  53        5PZ         0.00000   0.00000  -0.00000   0.00000   0.00000
  54        6D 0       -0.00000   0.00000   0.00000   0.00000   0.00000
  55        6D+1        0.00000   0.00000  -0.00000   0.00000  -0.00000
  56        6D-1        0.00000   0.00000  -0.00000   0.00000  -0.00000
  57        6D+2       -0.00000   0.00000   0.00000   0.00000   0.00000
  58        6D-2       -0.00000   0.00000   0.00000   0.00000   0.00000
                          46        47        48        49        50
  46        2S          0.19328
  47        3S          0.14445   0.20711
  48        4PX         0.00000   0.00000   0.00003
  49        4PY         0.00000   0.00000   0.00000   0.00034
  50        4PZ         0.00000   0.00000   0.00000   0.00000   0.00006
  51        5PX         0.00000   0.00000   0.00005   0.00000   0.00000
  52        5PY         0.00000   0.00000   0.00000   0.00037   0.00000
  53        5PZ         0.00000   0.00000   0.00000   0.00000   0.00013
  54        6D 0        0.00000   0.00000   0.00000   0.00000   0.00000
  55        6D+1       -0.00000  -0.00000   0.00000   0.00000   0.00000
  56        6D-1       -0.00000  -0.00000   0.00000   0.00000   0.00000
  57        6D+2        0.00000   0.00000   0.00000   0.00000   0.00000
  58        6D-2        0.00000   0.00000   0.00000   0.00000   0.00000
                          51        52        53        54        55
  51        5PX         0.00023
  52        5PY         0.00000   0.00118
  53        5PZ         0.00000   0.00000   0.00081
  54        6D 0        0.00000   0.00000   0.00000   0.00001
  55        6D+1        0.00000   0.00000   0.00000   0.00000   0.00000
  56        6D-1        0.00000   0.00000   0.00000  -0.00000   0.00000
  57        6D+2        0.00000   0.00000   0.00000   0.00000   0.00000
  58        6D-2        0.00000   0.00000   0.00000   0.00000   0.00000
                          56        57        58
  56        6D-1        0.00003
  57        6D+2        0.00000   0.00002
  58        6D-2        0.00000   0.00000   0.00001
     Gross orbital populations:
                         Total     Alpha     Beta      Spin
   1 1   O  1S          1.95668   0.97846   0.97822   0.00024
   2        2S          1.04045   0.55237   0.48808   0.06429
   3        3S          0.27902   0.15257   0.12645   0.02612
   4        4S          0.53985   0.21328   0.32656  -0.11328
   5        5PX         0.30103   0.30103   0.00000   0.30103
   6        5PY         0.36167   0.17229   0.18938  -0.01709
   7        5PZ         0.55681   0.28904   0.26777   0.02127
   8        6PX         0.44599   0.44599   0.00000   0.44599
   9        6PY         0.62425   0.30050   0.32374  -0.02324
  10        6PZ         0.82491   0.42491   0.40000   0.02491
  11        7PX         0.24146   0.24146   0.00000   0.24146
  12        7PY         0.31034   0.14621   0.16412  -0.01791
  13        7PZ         0.55333   0.26512   0.28820  -0.02308
  14        8D 0        0.00017   0.00017  -0.00000   0.00017
  15        8D+1        0.00001   0.00001   0.00000   0.00001
  16        8D-1        0.00010   0.00006   0.00004   0.00002
  17        8D+2        0.00097   0.00073   0.00023   0.00050
  18        8D-2        0.00000   0.00000   0.00000   0.00000
  19        9D 0        0.00100   0.00088   0.00012   0.00076
  20        9D+1        0.00005   0.00005   0.00000   0.00005
  21        9D-1        0.00098   0.00056   0.00043   0.00013
  22        9D+2        0.00584   0.00422   0.00162   0.00259
  23        9D-2        0.00000   0.00000   0.00000   0.00000
  24       10F 0        0.00010   0.00007   0.00003   0.00004
  25       10F+1        0.00004   0.00004   0.00000   0.00004
  26       10F-1        0.00023   0.00014   0.00009   0.00005
  27       10F+2        0.00008   0.00000   0.00008  -0.00008
  28       10F-2        0.00000   0.00000   0.00000  -0.00000
  29       10F+3       -0.00001  -0.00001   0.00000  -0.00001
  30       10F-3        0.00024  -0.00002   0.00026  -0.00028
  31 2   H  1S          0.20023   0.13912   0.06111   0.07802
  32        2S          0.42757   0.31643   0.11114   0.20529
  33        3S          0.30232   0.27415   0.02816   0.24599
  34        4PX         0.00057   0.00057  -0.00000   0.00057
  35        4PY         0.00649   0.00315   0.00335  -0.00020
  36        4PZ         0.00127   0.00064   0.00062   0.00002
  37        5PX         0.00461   0.00461  -0.00000   0.00461
  38        5PY         0.01928   0.00885   0.01043  -0.00158
  39        5PZ         0.01197   0.00611   0.00586   0.00025
  40        6D 0        0.00040   0.00012   0.00028  -0.00016
  41        6D+1        0.00003   0.00003  -0.00000   0.00003
  42        6D-1        0.00125   0.00057   0.00068  -0.00011
  43        6D+2        0.00071   0.00007   0.00065  -0.00058
  44        6D-2        0.00051   0.00051  -0.00000   0.00051
  45 3   H  1S          0.20023   0.13912   0.06111   0.07802
  46        2S          0.42757   0.31643   0.11114   0.20529
  47        3S          0.30232   0.27415   0.02816   0.24599
  48        4PX         0.00057   0.00057  -0.00000   0.00057
  49        4PY         0.00649   0.00315   0.00335  -0.00020
  50        4PZ         0.00127   0.00064   0.00062   0.00002
  51        5PX         0.00461   0.00461  -0.00000   0.00461
  52        5PY         0.01928   0.00885   0.01043  -0.00158
  53        5PZ         0.01197   0.00611   0.00586   0.00025
  54        6D 0        0.00040   0.00012   0.00028  -0.00016
  55        6D+1        0.00003   0.00003  -0.00000   0.00003
  56        6D-1        0.00125   0.00057   0.00068  -0.00011
  57        6D+2        0.00071   0.00007   0.00065  -0.00058
  58        6D-2        0.00051   0.00051  -0.00000   0.00051
          Condensed to atoms (all electrons):
               1          2          3
     1  O    8.267051  -0.110737  -0.110737
     2  H   -0.110737   0.967685   0.120264
     3  H   -0.110737   0.120264   0.967685
          Atomic-Atomic Spin Densities.
               1          2          3
     1  O    1.638587  -0.351938  -0.351938
     2  H   -0.351938   0.750461   0.134120
     3  H   -0.351938   0.134120   0.750461
 Mulliken charges and spin densities:
               1          2
     1  O   -0.045576   0.934712
     2  H    0.022788   0.532644
     3  H    0.022788   0.532644
 Sum of Mulliken charges =   0.00000   2.00000
 Mulliken charges and spin densities with hydrogens summed into heavy atoms:
               1          2
     1  O    0.000000   2.000000
 Electronic spatial extent (au):  <R**2>=             27.3975
 Charge=              0.0000 electrons
 Dipole moment (field-independent basis, Debye):
    X=              0.0000    Y=              0.0000    Z=             -0.2314  Tot=              0.2314
 Quadrupole moment (field-independent basis, Debye-Ang):
   XX=             -7.2429   YY=             -7.5306   ZZ=             -8.3723
   XY=             -0.0000   XZ=             -0.0000   YZ=              0.0000
 Traceless Quadrupole moment (field-independent basis, Debye-Ang):
   XX=              0.4724   YY=              0.1847   ZZ=             -0.6571
   XY=             -0.0000   XZ=             -0.0000   YZ=              0.0000
 Octapole moment (field-independent basis, Debye-Ang**2):
  XXX=              0.0000  YYY=             -0.0000  ZZZ=              0.6770  XYY=              0.0000
  XXY=              0.0000  XXZ=              0.2721  XZZ=              0.0000  YZZ=              0.0000
  YYZ=              0.1178  XYZ=             -0.0000
 Hexadecapole moment (field-independent basis, Debye-Ang**3):
 XXXX=             -6.8785 YYYY=            -30.6908 ZZZZ=             -9.1058 XXXY=             -0.0000
 XXXZ=             -0.0000 YYYX=             -0.0000 YYYZ=             -0.0000 ZZZX=             -0.0000
 ZZZY=             -0.0000 XXYY=             -6.3109 XXZZ=             -2.6614 YYZZ=             -6.6495
 XXYZ=              0.0000 YYXZ=             -0.0000 ZZXY=             -0.0000
 N-N= 7.285080068535D+00 E-N=-1.945024156951D+02  KE= 7.583904653944D+01
 Symmetry A1   KE= 6.978167539857D+01
 Symmetry A2   KE= 7.096888051504D-21
 Symmetry B1   KE= 2.589962340788D+00
 Symmetry B2   KE= 3.467408800089D+00
 Symmetry A1   SP= 1.000000000000D+00
 Symmetry A2   SP= 9.783916763759D-23
 Symmetry B1   SP= 1.000000000000D+00
 Symmetry B2   SP=-1.458910490109D-16
 Orbital energies and kinetic energies (alpha):
                                 1                 2
   1         (A1)--O         -19.265431         29.002088
   2         (A1)--O          -1.049111          2.984103
   3         (B2)--O          -0.572801          1.676731
   4         (B1)--O          -0.469245          2.589962
   5         (A1)--O          -0.405302          2.436198
   6         (A1)--O          -0.175599          1.116026
   7         (B2)--V          -0.003779          1.287322
   8         (A1)--V           0.200305          0.690332
   9         (B2)--V           0.328218          1.369599
  10         (B1)--V           0.471586          1.839921
  11         (A1)--V           0.495841          1.863418
  12         (B2)--V           0.522730          1.063938
  13         (A2)--V           0.541142          0.988306
  14         (A1)--V           0.802882          1.532012
  15         (B2)--V           0.806420          1.510248
  16         (B1)--V           0.823992          1.240876
  17         (A1)--V           0.901017          2.558895
  18         (A1)--V           1.042819          1.612932
  19         (B2)--V           1.198148          2.165019
  20         (B1)--V           1.395574          2.254993
  21         (A1)--V           1.404305          2.253170
  22         (A2)--V           1.660932          2.574780
  23         (B2)--V           1.797264          2.781961
  24         (A1)--V           2.047513          3.001261
  25         (A1)--V           2.379499          4.041435
  26         (B2)--V           2.547221          4.053742
  27         (B1)--V           2.978690          5.190951
  28         (A1)--V           3.060892          5.188487
  29         (A2)--V           3.072359          3.686042
  30         (B2)--V           3.072529          3.686419
  31         (B1)--V           3.219364          4.018106
  32         (A1)--V           3.223184          4.083500
  33         (B2)--V           3.316017          6.123190
  34         (A2)--V           3.516033          4.464032
  35         (B2)--V           3.587577          4.543942
  36         (B1)--V           3.676195          7.085759
  37         (A1)--V           3.710435          5.355970
  38         (B1)--V           3.748556          5.358349
  39         (B2)--V           3.750854          5.605891
  40         (A1)--V           3.762707          6.897566
  41         (A2)--V           3.969101          4.770380
  42         (B2)--V           4.104089          5.269787
  43         (A1)--V           4.152457          5.442975
  44         (A1)--V           4.344029          7.206687
  45         (B1)--V           5.026762          6.437341
  46         (A1)--V           5.027370          6.437951
  47         (B2)--V           5.150228          6.824786
  48         (A2)--V           5.307290          6.782291
  49         (B2)--V           5.463475          7.147590
  50         (B1)--V           6.019643          8.319421
  51         (A1)--V           6.053166          9.035746
  52         (B1)--V           6.152600          8.576735
  53         (A1)--V           6.193822          8.753687
  54         (A2)--V           6.449439          9.508250
  55         (B2)--V           6.632858          9.658976
  56         (A1)--V           7.024380         10.084528
  57         (B2)--V           7.322358         10.236788
  58         (A1)--V           9.012953         26.091664
 Orbital energies and kinetic energies (beta):
                                 1                 2
   1         (A1)--O         -19.234414         29.044833
   2         (A1)--O          -0.962351          2.844522
   3         (B2)--O          -0.529280          1.790678
   4         (A1)--O          -0.369119          2.353905
   5         (B1)--V          -0.211789          2.144018
   6         (A1)--V          -0.049106          0.974117
   7         (B2)--V           0.046025          1.009313
   8         (A1)--V           0.241822          0.816291
   9         (B2)--V           0.380328          1.501206
  10         (A1)--V           0.519303          1.942607
  11         (B1)--V           0.550857          2.151632
  12         (B2)--V           0.551547          1.096692
  13         (A2)--V           0.584485          0.985499
  14         (B2)--V           0.827948          1.458178
  15         (A1)--V           0.833860          1.514206
  16         (B1)--V           0.867359          1.240079
  17         (A1)--V           0.951807          2.636612
  18         (A1)--V           1.087938          1.574911
  19         (B2)--V           1.243481          2.182991
  20         (B1)--V           1.451699          2.244316
  21         (A1)--V           1.460687          2.249188
  22         (A2)--V           1.717998          2.564989
  23         (B2)--V           1.816172          2.785223
  24         (A1)--V           2.081390          2.994333
  25         (A1)--V           2.456832          4.079045
  26         (B2)--V           2.618764          4.078658
  27         (B1)--V           3.040664          5.061754
  28         (A1)--V           3.098111          5.277981
  29         (A2)--V           3.122346          3.687256
  30         (B2)--V           3.122510          3.687108
  31         (A1)--V           3.274984          4.044362
  32         (B1)--V           3.275077          4.007188
  33         (B2)--V           3.354844          6.243748
  34         (A2)--V           3.591529          4.470611
  35         (B2)--V           3.657006          4.546013
  36         (A1)--V           3.771016          6.657729
  37         (B1)--V           3.774627          6.638388
  38         (B2)--V           3.793812          5.503910
  39         (A1)--V           3.818588          5.625524
  40         (B1)--V           3.840702          6.075000
  41         (A2)--V           4.029898          4.764017
  42         (B2)--V           4.169773          5.275195
  43         (A1)--V           4.225281          5.414368
  44         (A1)--V           4.389505          7.187490
  45         (A1)--V           5.106276          6.437982
  46         (B1)--V           5.108511          6.436784
  47         (B2)--V           5.230051          6.826150
  48         (A2)--V           5.364813          6.773421
  49         (B2)--V           5.491111          7.124036
  50         (B1)--V           6.100085          8.092167
  51         (A1)--V           6.129862          8.725147
  52         (B1)--V           6.246658          8.821088
  53         (A1)--V           6.260571          9.072597
  54         (A2)--V           6.545379          9.528287
  55         (B2)--V           6.651622          9.659185
  56         (A1)--V           7.067970         10.084123
  57         (B2)--V           7.353398         10.237645
  58         (A1)--V           9.065210         26.118758
 Total kinetic energy from orbitals= 7.583904653944D+01
                          Isotropic Fermi Contact Couplings
        Atom                 a.u.       MegaHertz       Gauss      10(-4) cm-1
     1  O(17)              1.30712    -396.18605    -141.36903    -132.15344
     2  H(1)               0.13182     294.61650     105.12649      98.27349
     3  H(1)               0.13182     294.61650     105.12649      98.27349
 --------------------------------------------------------
       Center         ----  Spin Dipole Couplings  ----
                      3XX-RR        3YY-RR        3ZZ-RR
 --------------------------------------------------------
     1   Atom        4.078615     -2.411670     -1.666945
     2   Atom       -0.026335      0.085446     -0.059111
     3   Atom       -0.026335      0.085446     -0.059111
 --------------------------------------------------------
                        XY            XZ            YZ
 --------------------------------------------------------
     1   Atom        0.000000     -0.000000     -0.000000
     2   Atom        0.000000      0.000000     -0.029604
     3   Atom       -0.000000     -0.000000      0.029604
 --------------------------------------------------------


 ---------------------------------------------------------------------------------
              Anisotropic Spin Dipole Couplings in Principal Axis System
 ---------------------------------------------------------------------------------

       Atom             a.u.   MegaHertz   Gauss  10(-4) cm-1        Axes

              Baa    -2.4117   174.507    62.268    58.209  0.0000  1.0000  0.0000
     1 O(17)  Bbb    -1.6669   120.619    43.040    40.234  0.0000 -0.0000  1.0000
              Bcc     4.0786  -295.126  -105.308   -98.443  1.0000 -0.0000 -0.0000
 
              Baa    -0.0649   -34.648   -12.363   -11.557 -0.0000  0.1931  0.9812
     2 H(1)   Bbb    -0.0263   -14.051    -5.014    -4.687  1.0000  0.0000  0.0000
              Bcc     0.0913    48.699    17.377    16.244 -0.0000  0.9812 -0.1931
 
              Baa    -0.0649   -34.648   -12.363   -11.557  0.0000 -0.1931  0.9812
     3 H(1)   Bbb    -0.0263   -14.051    -5.014    -4.687  1.0000  0.0000  0.0000
              Bcc     0.0913    48.699    17.377    16.244 -0.0000  0.9812  0.1931
 

 ---------------------------------------------------------------------------------

 No NMR shielding tensors so no spin-rotation constants.
 Leave Link  601 at Thu Feb  7 03:21:10 2019, MaxMem=   262144000 cpu:               0.1 elap:               0.1
 (Enter /scratch/SOFT/gaussian/g16_a03/g16/l9999.exe)
 B after Tr=    -0.231275   -0.000000   -0.177463
         Rot=    1.000000    0.000000    0.000000    0.000000 Ang=   0.00 deg.
 Final structure in terms of initial Z-matrix:
 O
 H,1,r
 H,1,r,2,a
      Variables:
 r=1.19929572
 a=156.74929083

 Test job not archived.
 1\1\GINC-PHOENIX\FOpt\UB3LYP\CC-pVTZ\H2O1(3)\MGIMFERRER\07-Feb-2019\0\
 \#p ub3lyp/cc-pvtz pop=full opt gfinput iop(3/33=1)\\dsfdsf\\0,3\O,0.1
 748360367,0.,0.1341564094\H,-0.3485410219,0.,1.2132239189\H,1.08167526
 19,0.,-0.6506702307\\Version=ES64L-G16RevA.03\State=3-B1\HF=-76.224110
 8\S2=2.005241\S2-1=0.\S2A=2.00001\RMSD=9.414e-09\RMSF=2.006e-06\Dipole
 =0.0722232,0.,0.0554188\Quadrupole=-0.2565874,0.3511939,-0.0946065,0.,
 -0.3022605,0.\PG=C02V [C2(O1),SGV(H2)]\\@


 IF YOU WISH TO UNDERSTAND THE FRAGRANCE OF THE ROSE, 
 OR THE TENACITY OF THE OAK; 
 IF YOU ARE NOT SATISFIED UNTIL YOU KNOW THE SECRET PATHS 
 BY WHICH THE SUNSHINE AND THE AIR ACHIEVE THESE WONDERS; 
 IF YOU WISH TO SEE THE PATTERN WHICH UNDERLIES ONE LARGE FIELD OF 
 HUMAN EXPERIENCE AND HUMAN MEASUREMENT, THEN TAKE UP CHEMISTRY.

                                         -- C. A. COULSON, 1973.
 Job cpu time:       0 days  0 hours  0 minutes 21.8 seconds.
 Elapsed time:       0 days  0 hours  0 minutes 25.7 seconds.
 File lengths (MBytes):  RWF=      6 Int=      0 D2E=      0 Chk=      1 Scr=      1
 Normal termination of Gaussian 16 at Thu Feb  7 03:21:10 2019.
