N2 1.112 DISTANCE                                                       
SP        CASSCF                                                      CC-pVTZ             
Number of atoms                            I                2
Charge                                     I                0
Multiplicity                               I                1
Number of electrons                        I               14
Number of alpha electrons                  I                7
Number of beta electrons                   I                7
Number of basis functions                  I               60
Number of independant functions            I               60
Number of point charges in /Mol/           I                0
Number of translation vectors              I                0
Number of symbols in /Mol/                 I                0
Info1-9                                    I   N=           9
          12          11           0           0           0         111
           1           1           2
Num ILSW                                   I              100
ILSW                                       I   N=         100
           0           0           0           0           0           0
           0           0           3           0           0     1000000
           0           0           0           0           0           0
           0     1000000           0           3           0           0
           1           1           0           0     1000000           0
           0           0           0           0          -1           0
           0           0           0           0           0           0
           0           0           0           1           0           0
           0           0           1     1000000     1000000         606
           0           0           0           0           0           0
           0           0           0           0           0           0
           0           0           0           0           0           0
           0           0           0           0           0           0
           0           0           0           0           0           0
           0           0           0           0           0           0
           0           0           0           0           0           0
           0           0           0           0
Number of CAS Electrons                    I                6
Number of CAS Orbitals                     I                6
Number of contracted shells                I               20
Highest angular momentum                   I                3
Largest degree of contraction              I                7
Number of primitive shells                 I               48
Pure/Cartesian d shells                    I                0
Pure/Cartesian f shells                    I                0
Virial Ratio                               R      0.000000000000000E+00
SCF Energy                                 R     -1.091001311624702E+02
Total Energy                               R     -1.091001311624702E+02
Atomic numbers                             I   N=           2
           7           7
Nuclear charges                            R   N=           2
  7.00000000E+00  7.00000000E+00
Current cartesian coordinates              R   N=           6
  0.00000000E+00  0.00000000E+00  0.00000000E+00  0.00000000E+00  0.00000000E+00
  2.26767136E+00
Atom Types                                 C   N=           2
                        
Int Atom Types                             I   N=           2
           0           0
Force Field                                I                0
MM charges                                 R   N=           2
  0.00000000E+00  0.00000000E+00
Integer atomic weights                     I   N=           2
          14          14
Real atomic weights                        R   N=           2
  1.40030740E+01  1.40030740E+01
Atom residue info                          I   N=           2
           0           0
Atom fragment info                         I   N=           2
           0           0
Atom residue num                           I   N=           2
           0           0
Nuclear spins                              I   N=           2
           2           2
Nuclear ZEff                               R   N=           2
 -4.55000000E+00 -4.55000000E+00
Nuclear QMom                               R   N=           2
  1.56000000E+00  1.56000000E+00
Nuclear GFac                               R   N=           2
  4.03761000E-01  4.03761000E-01
MicOpt                                     I   N=           2
           0           0
Constraint Structure                       R   N=           6
  0.00000000E+00  0.00000000E+00  0.00000000E+00  0.00000000E+00  0.00000000E+00
  2.26767136E+00
ONIOM Charges                              I   N=          16
           0           0           0           0           0           0
           0           0           0           0           0           0
           0           0           0           0
ONIOM Multiplicities                       I   N=          16
           1           0           0           0           0           0
           0           0           0           0           0           0
           0           0           0           0
Atom Layers                                I   N=           2
           1           1
Atom Modifiers                             I   N=           2
           0           0
Atom Modified Types                        C   N=           2
                        
Int Atom Modified Types                    I   N=           2
           0           0
Link Atoms                                 I   N=           2
           0           0
Atom Modified MM Charges                   R   N=           2
  0.00000000E+00  0.00000000E+00
Link Distances                             R   N=           8
  0.00000000E+00  0.00000000E+00  0.00000000E+00  0.00000000E+00  0.00000000E+00
  0.00000000E+00  0.00000000E+00  0.00000000E+00
MxBond                                     I                1
NBond                                      I   N=           2
           1           1
IBond                                      I   N=           2
           2           1
RBond                                      R   N=           2
  2.00000000E+00  2.00000000E+00
Shell types                                I   N=          20
           0           0           0           0           1           1
           1          -2          -2          -3           0           0
           0           0           1           1           1          -2
          -2          -3
Number of primitives per shell             I   N=          20
           7           7           1           1           3           1
           1           1           1           1           7           7
           1           1           3           1           1           1
           1           1
Shell to atom map                          I   N=          20
           1           1           1           1           1           1
           1           1           1           1           2           2
           2           2           2           2           2           2
           2           2
Primitive exponents                        R   N=          48
  1.14200000E+04  1.71200000E+03  3.89300000E+02  1.10000000E+02  3.55700000E+01
  1.25400000E+01  4.64400000E+00  1.14200000E+04  1.71200000E+03  3.89300000E+02
  3.55700000E+01  1.25400000E+01  4.64400000E+00  5.11800000E-01  1.29300000E+00
  1.78700000E-01  2.66300000E+01  5.94800000E+00  1.74200000E+00  5.55000000E-01
  1.72500000E-01  1.65400000E+00  4.69000000E-01  1.09300000E+00  1.14200000E+04
  1.71200000E+03  3.89300000E+02  1.10000000E+02  3.55700000E+01  1.25400000E+01
  4.64400000E+00  1.14200000E+04  1.71200000E+03  3.89300000E+02  3.55700000E+01
  1.25400000E+01  4.64400000E+00  5.11800000E-01  1.29300000E+00  1.78700000E-01
  2.66300000E+01  5.94800000E+00  1.74200000E+00  5.55000000E-01  1.72500000E-01
  1.65400000E+00  4.69000000E-01  1.09300000E+00
Contraction coefficients                   R   N=          48
  5.34563860E-04  4.13435660E-03  2.12335358E-02  8.25006224E-02  2.38138871E-01
  4.42551547E-01  3.53757422E-01  9.02102607E-06  5.98036652E-05  2.58235151E-04
 -6.88794959E-03 -5.83634956E-02 -1.66162977E-01  1.07119219E+00  1.00000000E+00
  1.00000000E+00  3.98072123E-02  2.49002660E-01  8.10479727E-01  1.00000000E+00
  1.00000000E+00  1.00000000E+00  1.00000000E+00  1.00000000E+00  5.34563860E-04
  4.13435660E-03  2.12335358E-02  8.25006224E-02  2.38138871E-01  4.42551547E-01
  3.53757422E-01  9.02102607E-06  5.98036652E-05  2.58235151E-04 -6.88794959E-03
 -5.83634956E-02 -1.66162977E-01  1.07119219E+00  1.00000000E+00  1.00000000E+00
  3.98072123E-02  2.49002660E-01  8.10479727E-01  1.00000000E+00  1.00000000E+00
  1.00000000E+00  1.00000000E+00  1.00000000E+00
Coordinates of each shell                  R   N=          60
  0.00000000E+00  0.00000000E+00  0.00000000E+00  0.00000000E+00  0.00000000E+00
  0.00000000E+00  0.00000000E+00  0.00000000E+00  0.00000000E+00  0.00000000E+00
  0.00000000E+00  0.00000000E+00  0.00000000E+00  0.00000000E+00  0.00000000E+00
  0.00000000E+00  0.00000000E+00  0.00000000E+00  0.00000000E+00  0.00000000E+00
  0.00000000E+00  0.00000000E+00  0.00000000E+00  0.00000000E+00  0.00000000E+00
  0.00000000E+00  0.00000000E+00  0.00000000E+00  0.00000000E+00  0.00000000E+00
  0.00000000E+00  0.00000000E+00  2.26767136E+00  0.00000000E+00  0.00000000E+00
  2.26767136E+00  0.00000000E+00  0.00000000E+00  2.26767136E+00  0.00000000E+00
  0.00000000E+00  2.26767136E+00  0.00000000E+00  0.00000000E+00  2.26767136E+00
  0.00000000E+00  0.00000000E+00  2.26767136E+00  0.00000000E+00  0.00000000E+00
  2.26767136E+00  0.00000000E+00  0.00000000E+00  2.26767136E+00  0.00000000E+00
  0.00000000E+00  2.26767136E+00  0.00000000E+00  0.00000000E+00  2.26767136E+00
Alpha Orbital Energies                     R   N=          60
  0.00000000E+00  0.00000000E+00  0.00000000E+00  0.00000000E+00  0.00000000E+00
  0.00000000E+00  0.00000000E+00  0.00000000E+00  0.00000000E+00  0.00000000E+00
  0.00000000E+00  0.00000000E+00  0.00000000E+00  0.00000000E+00  0.00000000E+00
  0.00000000E+00  0.00000000E+00  0.00000000E+00  0.00000000E+00  0.00000000E+00
  0.00000000E+00  0.00000000E+00  0.00000000E+00  0.00000000E+00  0.00000000E+00
  0.00000000E+00  0.00000000E+00  0.00000000E+00  0.00000000E+00  0.00000000E+00
  0.00000000E+00  0.00000000E+00  0.00000000E+00  0.00000000E+00  0.00000000E+00
  0.00000000E+00  0.00000000E+00  0.00000000E+00  0.00000000E+00  0.00000000E+00
  0.00000000E+00  0.00000000E+00  0.00000000E+00  0.00000000E+00  0.00000000E+00
  0.00000000E+00  0.00000000E+00  0.00000000E+00  0.00000000E+00  0.00000000E+00
  0.00000000E+00  0.00000000E+00  0.00000000E+00  0.00000000E+00  0.00000000E+00
  0.00000000E+00  0.00000000E+00  0.00000000E+00  0.00000000E+00  0.00000000E+00
Alpha MO coefficients                      R   N=        3600
  6.91454799E-01 -4.61653235E-03  2.97762456E-02  1.00994808E-03  2.10769135E-16
 -1.32293710E-16  2.39205004E-03 -2.18913984E-16 -4.32838119E-16  6.26876551E-04
 -7.92980629E-17  3.13252396E-16  4.97530902E-04  4.30061081E-04  1.43764382E-17
  2.25240384E-16 -2.30814988E-17  9.72645504E-17 -1.61821329E-04 -3.27992533E-16
 -4.59837098E-16  2.06362977E-16 -2.54651773E-16 -2.20105231E-04 -2.61457135E-16
 -5.46719607E-17  1.08945334E-16 -8.18598336E-18  8.01172424E-17 -1.41641724E-16
  6.91454799E-01 -4.61653235E-03  2.97762456E-02  1.00994808E-03 -5.53379900E-17
 -3.16101305E-16 -2.39205004E-03  4.81918338E-16 -2.45654355E-16 -6.26876550E-04
  3.63908192E-16 -3.19310811E-16 -4.97530902E-04  4.30061081E-04  3.01496919E-16
  1.79901063E-16 -1.26315469E-17 -1.76634367E-16 -1.61821329E-04 -4.70396693E-16
 -8.31187261E-16  3.40927788E-17 -1.66147406E-16  2.20105231E-04  1.29031884E-16
  1.13203566E-16  1.29612583E-16  6.81869690E-17  8.69862700E-17  4.78881215E-18
  6.91626790E-01 -7.00537845E-03  2.95981749E-02  2.86421571E-03 -3.29193261E-16
 -2.18641944E-16  1.24514632E-03  6.91110533E-16  7.02158341E-16 -1.76830488E-03
  2.67769408E-16 -6.16669896E-16  7.08207109E-04  2.66675766E-04 -7.32552614E-17
  1.82890589E-16  1.73455942E-16 -1.54274067E-16 -3.99643152E-04  7.41321604E-16
 -3.94760740E-16  1.71329605E-16 -3.28255922E-17  1.72498288E-04  2.78208534E-16
  2.30887130E-17 -4.03557332E-17 -2.70586293E-17 -1.55419511E-16 -1.28698120E-16
 -6.91626790E-01  7.00537845E-03 -2.95981749E-02 -2.86421571E-03  1.61501828E-16
  1.61400762E-16  1.24514632E-03 -3.85477927E-16 -1.02626987E-16 -1.76830488E-03
 -3.55484155E-16  7.73205456E-16  7.08207109E-04 -2.66675766E-04 -2.22333237E-17
  2.42997833E-16  1.42347064E-16  9.77097869E-17  3.99643152E-04  6.99483915E-16
  4.59919153E-16  4.92168777E-17  3.32668760E-16  1.72498288E-04 -3.17878369E-16
 -1.11857430E-16 -2.76401218E-16  4.00976663E-17 -9.03774178E-17  4.86476132E-17
 -1.50554116E-01  3.45233189E-01  9.26255676E-02  2.58250385E-01  1.68972510E-16
 -7.67162916E-17 -8.17302678E-02  3.54496252E-16 -8.77803637E-17 -1.08041698E-01
  1.66075508E-16 -3.53673271E-16 -9.02460637E-02  1.96221157E-03 -3.30471346E-17
 -1.03955700E-16  6.80495881E-17  5.10101079E-17  1.78219629E-03  2.00123828E-16
  5.78839769E-17 -8.24621958E-17 -3.61717398E-17  1.79039190E-03  4.91451509E-17
 -1.81742129E-18 -3.26739706E-17  8.77141268E-17 -1.73546423E-17  1.66342950E-17
 -1.50554116E-01  3.45233189E-01  9.26255676E-02  2.58250385E-01  6.79371345E-17
 -6.88974703E-17  8.17302678E-02 -4.18228282E-17 -2.16175675E-16  1.08041698E-01
 -2.48887901E-16 -1.96876270E-16  9.02460637E-02  1.96221157E-03 -7.74229292E-18
  6.43633101E-17 -1.74561982E-17 -1.64408781E-17  1.78219629E-03  1.53654117E-16
  2.89595022E-16 -7.02616551E-17  6.58605498E-17 -1.79039190E-03 -1.77036381E-17
 -5.60775110E-17  2.97012985E-17  2.74101418E-17  5.52073961E-18 -2.98764953E-17
 -1.47268062E-01  3.79563625E-01  1.03412784E-01  3.16816708E-01  1.90236249E-16
 -2.31553028E-16 -1.04349989E-01  1.67609159E-16 -4.52001855E-16 -1.28998139E-01
  2.87245766E-16 -6.87253253E-16 -6.51993582E-02 -3.62692827E-03 -2.79619633E-17
 -2.90416280E-17 -1.08417072E-16  5.64187980E-19 -7.64017798E-03 -3.38000482E-17
 -3.84443772E-17 -2.90903365E-16  5.55215725E-17  2.07167693E-04 -4.47462710E-17
  5.85285826E-19  2.39657485E-17  1.21646777E-17 -3.26706933E-18  2.10892332E-17
  1.47268062E-01 -3.79563625E-01 -1.03412784E-01 -3.16816708E-01 -6.14936758E-17
  2.00373635E-17 -1.04349989E-01 -1.73116182E-16  1.29430390E-16 -1.28998139E-01
  1.10684424E-16  9.38769595E-17 -6.51993582E-02  3.62692827E-03 -6.74483972E-18
 -2.91034469E-17  7.22469108E-19 -4.16153960E-17  7.64017798E-03 -1.60635912E-16
 -1.42340604E-16  1.23065620E-16 -3.90254931E-17  2.07167693E-04  1.74536185E-17
 -1.05828237E-17  9.24256048E-17  1.20979234E-17  1.88567084E-17 -1.57841927E-18
 -1.11176270E-16  5.72509838E-16 -8.59572683E-17  2.00761384E-14  3.80183040E-03
  2.36786946E-01 -1.15270637E-16  5.03680534E-03  3.13704093E-01  3.19817306E-15
  2.94342160E-03  1.83323226E-01  8.97315854E-15  4.57790511E-17  2.45196508E-04
  1.52714156E-02  7.83893927E-18 -1.50542432E-17  2.12621670E-15  5.41281316E-04
  3.37122745E-02 -2.99016524E-16  4.69642051E-18  1.42258282E-16  1.01641538E-04
  6.33047421E-03  2.77788291E-17  2.84564971E-17  1.58608514E-17 -3.68556644E-16
  5.99060590E-17  2.77497091E-16  1.17017046E-16 -2.00341440E-14  3.80183040E-03
  2.36786946E-01 -1.95511079E-16  5.03680534E-03  3.13704093E-01  2.91685520E-15
  2.94342160E-03  1.83323226E-01  9.69525160E-15  7.75056335E-17 -2.45196508E-04
 -1.52714156E-02 -3.38531756E-17 -2.35568282E-17 -2.65596356E-15 -5.41281316E-04
 -3.37122745E-02 -1.91441699E-16 -1.21528776E-16  3.17723098E-16  1.01641538E-04
  6.33047421E-03  7.81606155E-17  4.32112213E-17 -2.01478286E-17  3.79856653E-17
  9.73480113E-17 -3.44528612E-16 -1.74511138E-16  1.43522484E-14  2.36786946E-01
 -3.80183040E-03 -4.14984626E-16  3.13704093E-01 -5.03680534E-03  1.95607130E-15
  1.83323226E-01 -2.94342160E-03  7.14680366E-15  5.73896719E-18  1.52714156E-02
 -2.45196508E-04 -6.44600565E-18 -3.68395612E-18  1.83936101E-15  3.37122745E-02
 -5.41281316E-04 -2.52612070E-16  7.71034110E-17  3.36718930E-16  6.33047421E-03
 -1.01641538E-04  1.07992899E-16 -1.61364818E-17  2.38033124E-16  1.63803979E-17
 -1.19664837E-16 -4.49566251E-16  3.15602204E-16 -1.39630446E-14  2.36786946E-01
 -3.80183040E-03 -2.33784548E-16  3.13704093E-01 -5.03680534E-03  1.90138296E-15
  1.83323226E-01 -2.94342160E-03  7.16584927E-15 -8.70650316E-17 -1.52714156E-02
  2.45196508E-04 -5.33148565E-17 -2.22378192E-17 -1.78111825E-15 -3.37122745E-02
  5.41281316E-04 -1.68053578E-18  8.52842521E-17  2.99220691E-16  6.33047421E-03
 -1.01641538E-04  5.56424400E-17  6.63186707E-18  9.76033885E-17 -4.16290208E-17
 -6.38520360E-02  1.33400453E-01  3.27585632E-02 -1.17036863E-01 -3.53834740E-16
  3.69838979E-16  2.63335957E-01 -3.23089999E-16  6.04108093E-16  3.12847165E-01
 -2.08897906E-16  1.70602139E-16  1.31467108E-01  2.18414049E-02 -3.99657368E-17
 -1.28048900E-17 -1.15311569E-16  7.26910757E-17  2.46284845E-02  5.59498267E-17
  2.69003789E-16  3.10572190E-16 -2.51656704E-17  7.85537184E-03 -2.07755577E-17
  1.11927994E-19  5.20765187E-17  6.09815066E-18 -8.74379874E-17  7.54883099E-18
 -6.38520360E-02  1.33400453E-01  3.27585632E-02 -1.17036863E-01  1.29823694E-16
  7.02782708E-17 -2.63335957E-01  1.92487661E-16  7.62803446E-17 -3.12847165E-01
  1.29274697E-16 -4.25219322E-16 -1.31467108E-01  2.18414049E-02  4.27613018E-17
 -1.84633185E-17 -9.55601293E-17 -1.35522314E-16  2.46284845E-02  2.40138576E-16
 -5.73666275E-17  1.48371372E-16  4.60233489E-17 -7.85537184E-03  1.43783718E-18
 -2.49024184E-17  2.08962734E-16 -1.23086684E-17 -5.08482870E-18 -4.45696434E-17
 -1.28793173E-16 -4.24706415E-16  2.58008174E-16 -1.81627477E-14  5.56383869E-03
  3.58738123E-01  9.38734940E-19  6.98933523E-03  4.50649478E-01 -4.09243826E-15
  2.06283673E-03  1.33004966E-01 -7.81078770E-15 -1.57533518E-17  1.52001160E-04
  9.80053772E-03 -3.58023269E-18  5.12296584E-17 -3.04051605E-15  3.59399168E-04
  2.31728830E-02 -7.17523788E-16  1.60194096E-16 -3.34203784E-16 -4.86583036E-05
 -3.13732828E-03 -2.79046678E-16  5.48516194E-17  1.20228470E-17 -6.47434331E-16
  7.53415026E-17  3.82804543E-16 -1.90525849E-16  1.81928522E-14 -5.56383869E-03
 -3.58738123E-01  9.58642462E-17 -6.98933523E-03 -4.50649478E-01 -3.28388566E-15
 -2.06283673E-03 -1.33004966E-01 -8.90067524E-15  1.50851804E-16  1.52001160E-04
  9.80053772E-03 -4.18144031E-17 -5.57485932E-17  2.51215099E-15  3.59399168E-04
  2.31728830E-02 -4.72053984E-16  2.93635652E-16 -2.88084929E-16  4.86583036E-05
  3.13732828E-03  1.47790632E-16 -6.41916740E-17  9.25819695E-17  3.87836644E-16
 -6.40092309E-17 -5.83439077E-16  1.08758161E-16  1.94707047E-14  3.58738123E-01
 -5.56383869E-03 -9.15303958E-18  4.50649478E-01 -6.98933523E-03  3.03541399E-15
  1.33004966E-01 -2.06283673E-03  8.87072004E-15 -1.72186167E-16  9.80053772E-03
 -1.52001160E-04 -2.62187711E-16  8.55550894E-17  2.08882728E-15  2.31728830E-02
 -3.59399168E-04  1.29964415E-16  3.32598549E-16  3.95232092E-16 -3.13732828E-03
  4.86583036E-05  2.99898882E-16  1.10001906E-16  9.21269024E-16  7.59976106E-17
 -2.24561937E-17  3.57348501E-16  2.32635391E-16 -1.91888003E-14 -3.58738123E-01
  5.56383869E-03 -8.24199809E-16 -4.50649478E-01  6.98933523E-03  2.64748612E-15
 -1.33004966E-01  2.06283673E-03  9.78416230E-15 -2.37413092E-16  9.80053772E-03
 -1.52001160E-04  1.49608054E-17 -4.01741320E-17 -2.34321528E-15  2.31728830E-02
 -3.59399168E-04 -2.35719926E-16  2.42023871E-17  4.24260171E-16  3.13732828E-03
 -4.86583036E-05  3.53734650E-17 -6.55795359E-17 -6.32264216E-16  8.59422269E-18
 -1.08312053E-01  4.30118812E-01  1.76869232E-01  3.12992644E-01  1.24212089E-15
 -1.49285989E-16  4.60336436E-01  3.57528665E-17 -8.54346158E-18  5.51013131E-01
 -1.09991096E-15 -2.51627031E-16  1.46321773E-01  7.68328640E-03 -9.12376427E-17
  1.06457488E-16 -2.78996737E-16  8.19133792E-17  2.25286727E-02 -9.73680703E-16
  3.90563641E-16 -2.76486938E-16 -7.29528677E-17 -1.58342562E-02 -3.12354832E-16
  9.17026023E-17 -2.61082317E-16  4.74048942E-17 -7.64048000E-17 -1.92017887E-17
  1.08312053E-01 -4.30118812E-01 -1.76869232E-01 -3.12992644E-01  1.29688628E-15
 -2.21486010E-16  4.60336436E-01  6.89466949E-16  2.46033642E-16  5.51013131E-01
 -7.91130100E-16  1.30203249E-16  1.46321773E-01 -7.68328640E-03  5.17201003E-17
  1.18627397E-17  2.57345170E-16  5.57646645E-17 -2.25286727E-02 -5.48828124E-16
  2.34039014E-16  3.95989602E-16  2.83475719E-16 -1.58342562E-02  2.96383138E-17
  3.39012884E-17 -7.66675811E-16  2.61576035E-16  4.46121440E-17  2.18746588E-17
  7.39288329E-16 -3.82019793E-15 -7.48887115E-16  7.66016346E-15 -1.33939069E-01
  3.63101065E-02  2.47416636E-15 -5.21650615E-01  1.41416463E-01  1.46199745E-14
  6.90929023E-01 -1.87306860E-01 -1.78839662E-14  5.96377473E-16 -9.61406109E-03
  2.60631633E-03 -4.86703101E-17  7.40175385E-17  3.72038931E-15 -7.62809675E-02
  2.06793289E-02 -2.76393104E-16 -1.88096581E-16  7.21176503E-16  8.93921352E-04
 -2.42336906E-04  2.73532835E-17  4.78641850E-17  5.42386507E-16  2.86147725E-16
 -6.30577525E-16  3.18181066E-15  1.35405757E-15 -3.49321491E-15 -1.33939069E-01
  3.63101065E-02  1.02117926E-15 -5.21650615E-01  1.41416463E-01  9.04381261E-15
  6.90929023E-01 -1.87306860E-01 -4.29728225E-15 -2.19965102E-16  9.61406109E-03
 -2.60631633E-03  5.47254206E-17  5.83629965E-17 -4.17501864E-15  7.62809675E-02
 -2.06793289E-02 -1.59514276E-16 -5.03776911E-16  8.05600574E-16  8.93921352E-04
 -2.42336906E-04 -2.96213605E-17 -9.95497188E-17  7.38233632E-16  1.95895827E-16
  4.13649686E-15  8.46852466E-15  4.44413652E-15  2.28706682E-14 -3.63101065E-02
 -1.33939069E-01  1.72505135E-14 -1.41416463E-01 -5.21650615E-01  7.27957069E-14
  1.87306860E-01  6.90929023E-01 -1.85529204E-13  6.13376037E-15 -2.60631633E-03
 -9.61406109E-03  2.95672736E-17 -2.68531747E-17 -1.16434697E-14 -2.06793289E-02
 -7.62809675E-02 -1.11382097E-16  8.06595820E-16 -2.90820063E-15  2.42336906E-04
  8.93921352E-04  2.90796507E-17  3.82279123E-17  2.22672569E-16 -4.97839582E-16
  3.62623749E-15  9.26119242E-15  4.74032050E-15  5.80672644E-14 -3.63101065E-02
 -1.33939069E-01 -1.62750498E-14 -1.41416463E-01 -5.21650615E-01 -7.02015640E-14
  1.87306860E-01  6.90929023E-01  1.60722377E-13  6.02247819E-15  2.60631633E-03
  9.61406109E-03  3.30511487E-17 -6.98507672E-17 -9.88755777E-15  2.06793289E-02
  7.62809675E-02  2.30559299E-17  1.38689280E-16  2.91590721E-15  2.42336906E-04
  8.93921352E-04 -1.02301770E-16  5.86548364E-19  1.89647100E-16 -8.20902858E-16
 -2.57110966E-02 -4.18591066E-02 -2.86193954E-02 -2.85304255E-01 -5.96313691E-15
 -1.96213687E-14 -1.11682593E-01 -2.34290256E-14 -7.63447188E-14 -4.76446897E-01
  2.87007128E-14  9.80262291E-14  1.14803733E+00 -4.00080112E-02 -3.96991540E-16
 -1.41966433E-15 -3.50902781E-16 -1.46508416E-17  7.20786860E-02 -4.26355318E-15
 -1.16868471E-14 -1.35962020E-15  1.66806433E-16  1.90265426E-02  3.93123820E-17
  6.37095519E-17 -5.17448984E-16  6.83028653E-17 -5.04226125E-17 -2.47341674E-17
 -2.57110966E-02 -4.18591066E-02 -2.86193954E-02 -2.85304255E-01 -6.70753716E-15
 -2.02152867E-14  1.11682593E-01 -2.53877072E-14 -7.93531451E-14  4.76446897E-01
  3.61172868E-14  1.08205000E-13 -1.14803733E+00 -4.00080112E-02  4.80368557E-16
  1.48440599E-15  2.83217624E-17 -3.78938486E-17  7.20786860E-02  3.43209914E-15
  1.12271246E-14 -2.06183157E-16 -5.44739901E-16 -1.90265426E-02  1.10998187E-16
  1.26308917E-16 -4.57715523E-17 -7.38509022E-17 -6.08643058E-17 -2.50865572E-17
  3.32685594E-02 -8.84256480E-01 -1.54106290E-01  9.28855986E-01  2.00167047E-16
 -1.13590042E-15  4.57874736E-02  1.49767829E-15 -3.98872389E-15  1.06574167E-01
 -5.66679068E-15  1.08157106E-14  4.63976562E-02 -5.83532296E-03 -5.25459674E-18
 -1.38574687E-16  1.11089658E-15 -4.33056018E-17 -1.42834011E-01 -5.42742846E-16
  6.50599605E-16 -3.33966984E-15 -2.70056121E-16  8.30519356E-04  1.72419442E-17
  1.27779420E-16  6.27229766E-17  7.31709672E-18 -3.05854671E-17 -3.18822719E-17
  3.32685594E-02 -8.84256480E-01 -1.54106290E-01  9.28855986E-01 -3.98305359E-16
  1.53049233E-16 -4.57874736E-02 -2.08233568E-15  1.02580264E-15 -1.06574167E-01
  6.55483297E-15 -6.76332722E-15 -4.63976562E-02 -5.83532296E-03  8.03322185E-17
 -8.30203135E-17  2.37198634E-16 -6.39622503E-18 -1.42834011E-01 -5.55454374E-16
  8.40313679E-16 -1.76995916E-15 -3.47150260E-16 -8.30519356E-04  1.49591636E-16
 -9.65782854E-17  1.34373923E-17 -2.40894337E-17 -2.07268920E-18 -1.27426723E-17
 -3.77741650E-02  1.92607599E-01 -7.69023783E-03  5.30499468E+00 -1.03964955E-15
 -2.93018965E-16 -1.12495837E-01 -4.69951295E-15  1.46675473E-15  1.31301532E-01
  6.40777537E-15 -7.79284127E-16  3.35125314E+00 -1.43964497E-02 -1.12534752E-16
 -2.95246954E-16  1.20882713E-15 -9.81900801E-17  3.96880591E-01 -9.38866024E-16
  2.44120012E-15 -2.51908406E-15  3.73733639E-16  3.72321294E-02  8.27642075E-17
  2.87705630E-16  7.08141553E-17 -2.18103631E-16  1.06426157E-16 -2.12930969E-17
  3.77741650E-02 -1.92607599E-01  7.69023783E-03 -5.30499468E+00 -1.47995341E-15
  2.08735356E-16 -1.12495837E-01 -5.67161810E-15 -2.67322582E-15  1.31301532E-01
  8.21747771E-15  2.44262372E-15  3.35125314E+00  1.43964497E-02  3.28711627E-17
 -2.80246349E-17 -1.77284653E-15  8.19486015E-17 -3.96880591E-01  1.45224652E-15
  1.97940397E-15  5.80744903E-15 -5.02514034E-17  3.72321294E-02  6.37344918E-17
 -4.86747655E-16 -7.11549131E-16 -9.67619947E-17 -8.68814669E-17 -8.97260971E-19
 -2.86453209E-18 -3.37751876E-15 -6.75920232E-16  8.59318423E-15 -1.02710518E-01
  4.88609477E-05 -1.01960119E-16 -4.27805113E-01  2.03513367E-04 -8.62104463E-16
  1.53209787E+00 -7.28842145E-04  7.29758089E-15 -1.99176155E-16 -2.01807207E-02
  9.60027426E-06 -9.07219323E-17 -5.12244906E-17  8.81319874E-16  1.48751778E-01
 -7.07634720E-05 -7.37767674E-16  2.34291320E-16  2.17955429E-16  2.37426231E-02
 -1.12947251E-05  5.15572531E-17  1.01408541E-16  1.83298183E-15  7.04457188E-17
 -3.53878256E-17 -4.43386489E-15 -6.13718723E-16 -2.74647151E-15  1.02710518E-01
 -4.88609477E-05 -8.22226040E-17  4.27805113E-01 -2.03513367E-04  1.27118510E-15
 -1.53209787E+00  7.28842145E-04  1.55860637E-16 -2.17514479E-16 -2.01807207E-02
  9.60027426E-06 -9.48982359E-17  2.17285518E-17 -5.98855461E-16  1.48751778E-01
 -7.07634720E-05 -1.21305418E-16  1.82374415E-16 -1.13673840E-17 -2.37426231E-02
  1.12947251E-05  6.01375897E-18  6.82689547E-17 -1.51139546E-15 -2.47677988E-17
 -4.13737465E-16  6.21956060E-15  1.00242835E-15 -8.81805394E-15 -4.88609477E-05
 -1.02710518E-01 -7.46868841E-16 -2.03513367E-04 -4.27805113E-01 -4.12564010E-15
  7.28842145E-04  1.53209787E+00  5.34052582E-15 -8.70005971E-17 -9.60027426E-06
 -2.01807207E-02 -7.84360817E-17  1.17416078E-16 -2.92183701E-17  7.07634720E-05
  1.48751778E-01  7.65986521E-16 -9.68827083E-17 -6.98291041E-17  1.12947251E-05
  2.37426231E-02 -1.72332316E-17  1.47294173E-16 -6.43618965E-17 -1.66653143E-15
 -1.19057522E-16  3.36492448E-15  5.71539946E-16 -3.59836344E-15  4.88609477E-05
  1.02710518E-01  5.01113352E-16  2.03513367E-04  4.27805113E-01  6.01017659E-16
 -7.28842145E-04 -1.53209787E+00 -2.50246337E-15 -5.15407971E-17 -9.60027426E-06
 -2.01807207E-02  1.34685096E-17 -9.57750754E-17  1.77207242E-15  7.07634720E-05
  1.48751778E-01  4.38217297E-16  6.04375280E-16 -1.62784126E-16 -1.12947251E-05
 -2.37426231E-02  5.22620202E-17  4.69525960E-17  1.60469344E-17  1.70322128E-15
  2.15854112E-16  2.08703067E-14  5.79275732E-15 -1.92065058E-13 -7.08711847E-16
 -5.69898069E-17  8.66582924E-16 -2.26438119E-15  8.38997113E-16 -1.79186390E-14
  1.97258477E-15 -3.10594178E-15 -8.36581504E-14 -3.54817246E-16 -1.92564865E-16
 -1.99693622E-16 -1.05776137E-02  2.91179579E-12 -1.35118732E-14  1.16525136E-15
 -1.18029916E-15  6.23912480E-01 -1.71754674E-10 -2.37464299E-15 -2.08750056E-16
  9.66176076E-17  7.89624326E-03 -2.17380218E-12  2.17514221E-17 -5.01288231E-17
  1.19476964E-15 -1.79045594E-14 -6.93713573E-15  1.92543339E-13 -4.29600927E-16
 -3.78134190E-17  9.77548632E-16 -2.95569522E-16 -5.12664519E-16 -1.96100965E-14
 -6.39548891E-16  2.66816039E-15 -8.20434770E-14  7.32128106E-16  1.65700239E-16
  6.62889496E-17 -1.05776137E-02  2.91182102E-12  5.52154571E-15 -3.29334903E-15
 -2.50243629E-16  6.23912480E-01 -1.71754268E-10 -1.46214826E-15  1.01665576E-16
  1.14913818E-17 -7.89624326E-03  2.17373853E-12 -3.73409667E-18  2.87289672E-19
 -2.36297835E-16  5.42416502E-15  2.05161781E-15 -7.36812660E-14 -7.65482518E-18
  3.41217906E-16  4.47515906E-16  2.37598108E-15  2.28501230E-15 -9.93933065E-15
 -2.98596044E-16 -3.71278458E-15 -3.12015715E-14 -1.81723083E-16 -2.15429401E-16
  3.10881002E-17 -2.91148635E-12 -1.05776137E-02 -6.63092546E-15 -1.25776142E-15
 -4.78305171E-15  1.71754476E-10  6.23912480E-01 -1.13316416E-15  2.80540993E-16
 -2.00132250E-16  2.17371356E-12  7.89624326E-03  1.56093189E-16 -1.42432280E-18
  3.87297844E-16 -5.43048060E-15 -2.15217588E-15  7.40849640E-14  7.13218626E-16
  5.66335936E-16  6.22023166E-16 -2.50623894E-16  2.30326644E-15 -1.01775435E-14
  2.27247272E-16  4.74818206E-16 -3.13752969E-14  2.23479065E-16  1.47947715E-16
  3.08858198E-16 -2.91181990E-12 -1.05776137E-02  5.14085619E-15  4.46671731E-15
  9.86152233E-16  1.71754806E-10  6.23912480E-01 -1.03580135E-15 -1.75603099E-16
  3.20601600E-16 -2.17383944E-12 -7.89624326E-03  4.42899746E-17 -1.23019528E-18
  5.44506788E-02 -6.56297918E-01 -2.88670575E-01  8.99420836E+00  1.78946572E-15
 -1.56601458E-15 -5.09012792E-02  8.81794515E-15  2.71995810E-15  1.26440440E+00
 -6.00895071E-15  1.00618938E-14  3.74620090E+00  2.48612375E-02 -1.41151488E-16
 -1.45386986E-15  2.68262675E-15 -4.22654927E-16  7.39139156E-01  2.12235964E-16
  1.42627468E-14 -3.80249096E-15  4.76419985E-15  1.22167867E-01  3.66119470E-16