dsfdsf                                                                  
FOpt      RB3LYP                                                      CC-pVTZ             
Number of atoms                            I                8
Info1-9                                    I   N=           9
          18          16           0           0           0         111
           2          18        -502
Charge                                     I                0
Multiplicity                               I                1
Number of electrons                        I               18
Number of alpha electrons                  I                9
Number of beta electrons                   I                9
Number of basis functions                  I              160
Number of independent functions            I              160
Number of point charges in /Mol/           I                0
Number of translation vectors              I                0
Atomic numbers                             I   N=           8
           6           6           1           1           1           1
           1           1
Nuclear charges                            R   N=           8
  6.00000000E+00  6.00000000E+00  1.00000000E+00  1.00000000E+00  1.00000000E+00
  1.00000000E+00  1.00000000E+00  1.00000000E+00
Current cartesian coordinates              R   N=          24
  0.00000000E+00  1.44276007E+00 -1.57772181E-30 -1.76691073E-16 -1.44276007E+00
  0.00000000E+00  1.91997508E+00  2.19384997E+00 -4.35979756E-26 -9.60082158E-01
  2.19371293E+00  1.66275692E+00 -9.60082158E-01  2.19371293E+00 -1.66275692E+00
 -1.91997508E+00 -2.19384997E+00  4.35987645E-26  9.60082158E-01 -2.19371293E+00
 -1.66275692E+00  9.60082158E-01 -2.19371293E+00  1.66275692E+00
Force Field                                I                0
Int Atom Types                             I   N=           8
           0           0           0           0           0           0
           0           0
MM charges                                 R   N=           8
  0.00000000E+00  0.00000000E+00  0.00000000E+00  0.00000000E+00  0.00000000E+00
  0.00000000E+00  0.00000000E+00  0.00000000E+00
Integer atomic weights                     I   N=           8
          12          12           1           1           1           1
           1           1
Real atomic weights                        R   N=           8
  1.20000000E+01  1.20000000E+01  1.00782504E+00  1.00782504E+00  1.00782504E+00
  1.00782504E+00  1.00782504E+00  1.00782504E+00
Atom fragment info                         I   N=           8
           0           0           0           0           0           0
           0           0
Atom residue num                           I   N=           8
           0           0           0           0           0           0
           0           0
Nuclear spins                              I   N=           8
           0           0           1           1           1           1
           1           1
Nuclear ZEff                               R   N=           8
 -3.60000000E+00 -3.60000000E+00 -1.00000000E+00 -1.00000000E+00 -1.00000000E+00
 -1.00000000E+00 -1.00000000E+00 -1.00000000E+00
Nuclear ZNuc                               R   N=           8
  6.00000000E+00  6.00000000E+00  1.00000000E+00  1.00000000E+00  1.00000000E+00
  1.00000000E+00  1.00000000E+00  1.00000000E+00
Nuclear QMom                               R   N=           8
  0.00000000E+00  0.00000000E+00  0.00000000E+00  0.00000000E+00  0.00000000E+00
  0.00000000E+00  0.00000000E+00  0.00000000E+00
Nuclear GFac                               R   N=           8
  0.00000000E+00  0.00000000E+00  2.79284600E+00  2.79284600E+00  2.79284600E+00
  2.79284600E+00  2.79284600E+00  2.79284600E+00
MicOpt                                     I   N=           8
          -1          -1          -1          -1          -1          -1
          -1          -1
SymInf integers                            I   N=          26
           4           4           1           1           1          -1
          -1           1           1           1          -1          -1
          -1          -1           0           0           0           0
           0           0           0           0           0           0
           0           0
RotTr to input orientation                 R   N=          12
 -1.00000000E+00 -7.72145502E-11 -3.07549896E-05 -3.07549896E-05 -6.31689825E-16
  1.00000000E+00 -7.72145502E-11  1.00000000E+00 -1.74304286E-15  3.45402719E-16
  0.00000000E+00  4.93432455E-16
Number of contracted shells                I               56
Number of primitive shells                 I               94
Pure/Cartesian d shells                    I                1
Pure/Cartesian f shells                    I                1
Highest angular momentum                   I                3
Largest degree of contraction              I                7
Shell types                                I   N=          56
           0           0           0           0           1           1
           1           2           2           3           0           0
           0           0           1           1           1           2
           2           3           0           0           0           1
           1           2           0           0           0           1
           1           2           0           0           0           1
           1           2           0           0           0           1
           1           2           0           0           0           1
           1           2           0           0           0           1
           1           2
Number of primitives per shell             I   N=          56
           7           6           1           1           3           1
           1           1           1           1           7           6
           1           1           3           1           1           1
           1           1           3           1           1           1
           1           1           3           1           1           1
           1           1           3           1           1           1
           1           1           3           1           1           1
           1           1           3           1           1           1
           1           1           3           1           1           1
           1           1
Shell to atom map                          I   N=          56
           1           1           1           1           1           1
           1           1           1           1           2           2
           2           2           2           2           2           2
           2           2           3           3           3           3
           3           3           4           4           4           4
           4           4           5           5           5           5
           5           5           6           6           6           6
           6           6           7           7           7           7
           7           7           8           8           8           8
           8           8
Primitive exponents                        R   N=          94
  8.23600000E+03  1.23500000E+03  2.80800000E+02  7.92700000E+01  2.55900000E+01
  8.99700000E+00  3.31900000E+00  2.80800000E+02  7.92700000E+01  2.55900000E+01
  8.99700000E+00  3.31900000E+00  3.64300000E-01  9.05900000E-01  1.28500000E-01
  1.87100000E+01  4.13300000E+00  1.20000000E+00  3.82700000E-01  1.20900000E-01
  1.09700000E+00  3.18000000E-01  7.61000000E-01  8.23600000E+03  1.23500000E+03
  2.80800000E+02  7.92700000E+01  2.55900000E+01  8.99700000E+00  3.31900000E+00
  2.80800000E+02  7.92700000E+01  2.55900000E+01  8.99700000E+00  3.31900000E+00
  3.64300000E-01  9.05900000E-01  1.28500000E-01  1.87100000E+01  4.13300000E+00
  1.20000000E+00  3.82700000E-01  1.20900000E-01  1.09700000E+00  3.18000000E-01
  7.61000000E-01  3.38700000E+01  5.09500000E+00  1.15900000E+00  3.25800000E-01
  1.02700000E-01  1.40700000E+00  3.88000000E-01  1.05700000E+00  3.38700000E+01
  5.09500000E+00  1.15900000E+00  3.25800000E-01  1.02700000E-01  1.40700000E+00
  3.88000000E-01  1.05700000E+00  3.38700000E+01  5.09500000E+00  1.15900000E+00
  3.25800000E-01  1.02700000E-01  1.40700000E+00  3.88000000E-01  1.05700000E+00
  3.38700000E+01  5.09500000E+00  1.15900000E+00  3.25800000E-01  1.02700000E-01
  1.40700000E+00  3.88000000E-01  1.05700000E+00  3.38700000E+01  5.09500000E+00
  1.15900000E+00  3.25800000E-01  1.02700000E-01  1.40700000E+00  3.88000000E-01
  1.05700000E+00  3.38700000E+01  5.09500000E+00  1.15900000E+00  3.25800000E-01
  1.02700000E-01  1.40700000E+00  3.88000000E-01  1.05700000E+00
Contraction coefficients                   R   N=          94
  5.41978320E-04  4.19287382E-03  2.15221621E-02  8.35343220E-02  2.39582846E-01
  4.42852842E-01  3.51799562E-01 -5.94922494E-05 -1.14815831E-03 -1.00191374E-02
 -6.12194923E-02 -1.73269854E-01  1.07291519E+00  1.00000000E+00  1.00000000E+00
  3.94263872E-02  2.44088985E-01  8.15492009E-01  1.00000000E+00  1.00000000E+00
  1.00000000E+00  1.00000000E+00  1.00000000E+00  5.41978320E-04  4.19287382E-03
  2.15221621E-02  8.35343220E-02  2.39582846E-01  4.42852842E-01  3.51799562E-01
 -5.94922494E-05 -1.14815831E-03 -1.00191374E-02 -6.12194923E-02 -1.73269854E-01
  1.07291519E+00  1.00000000E+00  1.00000000E+00  3.94263872E-02  2.44088985E-01
  8.15492009E-01  1.00000000E+00  1.00000000E+00  1.00000000E+00  1.00000000E+00
  1.00000000E+00  2.54948632E-02  1.90362766E-01  8.52162022E-01  1.00000000E+00
  1.00000000E+00  1.00000000E+00  1.00000000E+00  1.00000000E+00  2.54948632E-02
  1.90362766E-01  8.52162022E-01  1.00000000E+00  1.00000000E+00  1.00000000E+00
  1.00000000E+00  1.00000000E+00  2.54948632E-02  1.90362766E-01  8.52162022E-01
  1.00000000E+00  1.00000000E+00  1.00000000E+00  1.00000000E+00  1.00000000E+00
  2.54948632E-02  1.90362766E-01  8.52162022E-01  1.00000000E+00  1.00000000E+00
  1.00000000E+00  1.00000000E+00  1.00000000E+00  2.54948632E-02  1.90362766E-01
  8.52162022E-01  1.00000000E+00  1.00000000E+00  1.00000000E+00  1.00000000E+00
  1.00000000E+00  2.54948632E-02  1.90362766E-01  8.52162022E-01  1.00000000E+00
  1.00000000E+00  1.00000000E+00  1.00000000E+00  1.00000000E+00
Coordinates of each shell                  R   N=         168
  0.00000000E+00  1.44276007E+00  1.57772181E-30  0.00000000E+00  1.44276007E+00
  1.57772181E-30  0.00000000E+00  1.44276007E+00  1.57772181E-30  0.00000000E+00
  1.44276007E+00  1.57772181E-30  0.00000000E+00  1.44276007E+00  1.57772181E-30
  0.00000000E+00  1.44276007E+00  1.57772181E-30  0.00000000E+00  1.44276007E+00
  1.57772181E-30  0.00000000E+00  1.44276007E+00  1.57772181E-30  0.00000000E+00
  1.44276007E+00  1.57772181E-30  0.00000000E+00  1.44276007E+00  1.57772181E-30
 -1.76691073E-16 -1.44276007E+00 -7.88860905E-31 -1.76691073E-16 -1.44276007E+00
 -7.88860905E-31 -1.76691073E-16 -1.44276007E+00 -7.88860905E-31 -1.76691073E-16
 -1.44276007E+00 -7.88860905E-31 -1.76691073E-16 -1.44276007E+00 -7.88860905E-31
 -1.76691073E-16 -1.44276007E+00 -7.88860905E-31 -1.76691073E-16 -1.44276007E+00
 -7.88860905E-31 -1.76691073E-16 -1.44276007E+00 -7.88860905E-31 -1.76691073E-16
 -1.44276007E+00 -7.88860905E-31 -1.76691073E-16 -1.44276007E+00 -7.88860905E-31
  1.91997508E+00  2.19384997E+00  3.44322008E-26  1.91997508E+00  2.19384997E+00
  3.44322008E-26  1.91997508E+00  2.19384997E+00  3.44322008E-26  1.91997508E+00
  2.19384997E+00  3.44322008E-26  1.91997508E+00  2.19384997E+00  3.44322008E-26
  1.91997508E+00  2.19384997E+00  3.44322008E-26 -9.60082158E-01  2.19371293E+00
  1.66275692E+00 -9.60082158E-01  2.19371293E+00  1.66275692E+00 -9.60082158E-01
  2.19371293E+00  1.66275692E+00 -9.60082158E-01  2.19371293E+00  1.66275692E+00
 -9.60082158E-01  2.19371293E+00  1.66275692E+00 -9.60082158E-01  2.19371293E+00
  1.66275692E+00 -9.60082158E-01  2.19371293E+00 -1.66275692E+00 -9.60082158E-01
  2.19371293E+00 -1.66275692E+00 -9.60082158E-01  2.19371293E+00 -1.66275692E+00
 -9.60082158E-01  2.19371293E+00 -1.66275692E+00 -9.60082158E-01  2.19371293E+00
 -1.66275692E+00 -9.60082158E-01  2.19371293E+00 -1.66275692E+00 -1.91997508E+00
 -2.19384997E+00  1.72642209E-26 -1.91997508E+00 -2.19384997E+00  1.72642209E-26
 -1.91997508E+00 -2.19384997E+00  1.72642209E-26 -1.91997508E+00 -2.19384997E+00
  1.72642209E-26 -1.91997508E+00 -2.19384997E+00  1.72642209E-26 -1.91997508E+00
 -2.19384997E+00  1.72642209E-26  9.60082158E-01 -2.19371293E+00 -1.66275692E+00
  9.60082158E-01 -2.19371293E+00 -1.66275692E+00  9.60082158E-01 -2.19371293E+00
 -1.66275692E+00  9.60082158E-01 -2.19371293E+00 -1.66275692E+00  9.60082158E-01
 -2.19371293E+00 -1.66275692E+00  9.60082158E-01 -2.19371293E+00 -1.66275692E+00
  9.60082158E-01 -2.19371293E+00  1.66275692E+00  9.60082158E-01 -2.19371293E+00
  1.66275692E+00  9.60082158E-01 -2.19371293E+00  1.66275692E+00  9.60082158E-01
 -2.19371293E+00  1.66275692E+00  9.60082158E-01 -2.19371293E+00  1.66275692E+00
  9.60082158E-01 -2.19371293E+00  1.66275692E+00
Constraint Structure                       R   N=          24
  0.00000000E+00  1.45130967E+00  0.00000000E+00 -1.77734174E-16 -1.45130967E+00
  0.00000000E+00  1.92600887E+00  2.18698005E+00  0.00000000E+00 -9.63004437E-01
  2.18698005E+00  1.66787228E+00 -9.63004437E-01  2.18698005E+00 -1.66787228E+00
 -1.92600887E+00 -2.18698005E+00  0.00000000E+00  9.63004437E-01 -2.18698005E+00
 -1.66787228E+00  9.63004437E-01 -2.18698005E+00  1.66787228E+00
Num ILSW                                   I              100
ILSW                                       I   N=         100
           0           1           0           0           2           0
           0           0           0           0         402          -1
           0           0           0           1           2           0
           0           0           0           0           1           0
           1           0           0           0           0           0
           0           0      100000           0          -1           0
           0           0           0           0           0           0
           0           0           0           1           0           0
           0           0           1           0           0           0
           0           0           4          41           0           0
           0           0           5           0           0           0
           0           0           0           8           0           0
           0           0           0           0           0           0
           0           0           0           0           0           0
           0           0           0           0           0           0
           0           0           0           0           0           0
           0           0           0           0
Num RLSW                                   I               41
RLSW                                       R   N=          41
  8.00000000E-01  7.20000000E-01  1.00000000E+00  8.10000000E-01  2.00000000E-01
  0.00000000E+00  0.00000000E+00  1.00000000E+00  0.00000000E+00  0.00000000E+00
  0.00000000E+00  0.00000000E+00  1.00000000E+00  0.00000000E+00  0.00000000E+00
  0.00000000E+00  0.00000000E+00  1.00000000E+00  0.00000000E+00  0.00000000E+00
  0.00000000E+00  0.00000000E+00  1.00000000E+00  0.00000000E+00  0.00000000E+00
  0.00000000E+00  0.00000000E+00  1.00000000E+00  0.00000000E+00  0.00000000E+00
  0.00000000E+00  0.00000000E+00  1.00000000E+00  0.00000000E+00  0.00000000E+00
  0.00000000E+00  0.00000000E+00  0.00000000E+00  1.00000000E+00  1.00000000E+00
  0.00000000E+00
MxBond                                     I                4
NBond                                      I   N=           8
           4           4           1           1           1           1
           1           1
IBond                                      I   N=          32
           2           3           4           5           1           6
           7           8           1           0           0           0
           1           0           0           0           1           0
           0           0           2           0           0           0
           2           0           0           0           2           0
           0           0
RBond                                      R   N=          32
  1.00000000E+00  1.00000000E+00  1.00000000E+00  1.00000000E+00  1.00000000E+00
  1.00000000E+00  1.00000000E+00  1.00000000E+00  1.00000000E+00  0.00000000E+00
  0.00000000E+00  0.00000000E+00  1.00000000E+00  0.00000000E+00  0.00000000E+00
  0.00000000E+00  1.00000000E+00  0.00000000E+00  0.00000000E+00  0.00000000E+00
  1.00000000E+00  0.00000000E+00  0.00000000E+00  0.00000000E+00  1.00000000E+00
  0.00000000E+00  0.00000000E+00  0.00000000E+00  1.00000000E+00  0.00000000E+00
  0.00000000E+00  0.00000000E+00
Virial Ratio                               R      2.007351397364236E+00
SCF Energy                                 R     -7.986561337773443E+01
Total Energy                               R     -7.986561337773443E+01
RMS Force                                  R      2.084455647731193E-06
RMS Density                                R      1.597187304345585E-09
Job Status                                 I                1
Nuclear derivative order                   I                1
External E-field                           R   N=          35
  0.00000000E+00  0.00000000E+00  0.00000000E+00  0.00000000E+00  0.00000000E+00
  0.00000000E+00  0.00000000E+00  0.00000000E+00  0.00000000E+00  0.00000000E+00
  0.00000000E+00  0.00000000E+00  0.00000000E+00  0.00000000E+00  0.00000000E+00
  0.00000000E+00  0.00000000E+00  0.00000000E+00  0.00000000E+00  0.00000000E+00
  0.00000000E+00  0.00000000E+00  0.00000000E+00  0.00000000E+00  0.00000000E+00
  0.00000000E+00  0.00000000E+00  0.00000000E+00  0.00000000E+00  0.00000000E+00
  0.00000000E+00  0.00000000E+00  0.00000000E+00  0.00000000E+00  0.00000000E+00
IOpCl                                      I                0
IROHF                                      I                0
Alpha Orbital Energies                     R   N=         160
 -1.01611997E+01 -1.01609691E+01 -7.54601041E-01 -6.17939212E-01 -4.36924270E-01
 -4.36918920E-01 -3.70854444E-01 -3.45663722E-01 -3.45653519E-01  3.50103681E-02
  7.40947137E-02  1.00368673E-01  1.00370450E-01  1.26892441E-01  1.26896751E-01
  2.02530762E-01  2.35430934E-01  2.57504191E-01  2.57512372E-01  2.62852322E-01
  2.62853582E-01  4.14735684E-01  4.37091549E-01  4.37094935E-01  4.38252813E-01
  4.64795667E-01  4.81023373E-01  4.81029387E-01  5.42577424E-01  5.42580536E-01
  5.71391631E-01  6.09758196E-01  7.71337342E-01  7.71364269E-01  8.52455427E-01
  9.19200920E-01  9.35295155E-01  9.35309947E-01  9.80710420E-01  1.02350147E+00
  1.02350655E+00  1.07027058E+00  1.07313912E+00  1.07316324E+00  1.12516699E+00
  1.15980917E+00  1.15982073E+00  1.22386470E+00  1.27010140E+00  1.27010813E+00
  1.30546543E+00  1.33419904E+00  1.36090658E+00  1.36091041E+00  1.36191941E+00
  1.36194987E+00  1.50106834E+00  1.50111792E+00  1.52985600E+00  1.73407136E+00
  1.77518920E+00  1.77525298E+00  1.94338718E+00  1.94338871E+00  2.05935417E+00
  2.37074399E+00  2.51638826E+00  2.51638920E+00  2.55346791E+00  2.70586411E+00
  2.70587624E+00  2.76764841E+00  2.78442422E+00  2.84445437E+00  2.84447238E+00
  2.85491861E+00  2.91399243E+00  2.91399563E+00  2.98465258E+00  3.00839583E+00
  3.03241258E+00  3.03242132E+00  3.05842810E+00  3.05844808E+00  3.08722224E+00
  3.08722411E+00  3.14659518E+00  3.14659894E+00  3.24512724E+00  3.29711369E+00
  3.29711832E+00  3.31207488E+00  3.33704289E+00  3.33707520E+00  3.34488995E+00
  3.50695448E+00  3.55829534E+00  3.55831240E+00  3.68541058E+00  3.68541302E+00
  3.73244364E+00  3.73250653E+00  3.73863528E+00  3.84204114E+00  3.86078597E+00
  3.89405731E+00  3.89411753E+00  3.95225829E+00  3.98623184E+00  3.98624108E+00
  4.00919526E+00  4.00922788E+00  4.08174248E+00  4.08824652E+00  4.14878106E+00
  4.17778892E+00  4.17780920E+00  4.21429348E+00  4.21430577E+00  4.27399267E+00
  4.38949858E+00  4.50317365E+00  4.50318411E+00  4.65817279E+00  4.68765247E+00
  4.68769841E+00  4.69269025E+00  4.81446936E+00  4.83190634E+00  4.83191472E+00
  4.98166576E+00  4.98181428E+00  4.99182727E+00  5.05159150E+00  5.05159850E+00
  5.10604189E+00  5.22652857E+00  5.32483184E+00  5.33939784E+00  5.33944287E+00
  5.37295056E+00  5.37298121E+00  5.38868218E+00  5.45920245E+00  5.45924548E+00
  5.64744766E+00  6.27597059E+00  6.31906766E+00  6.31912499E+00  6.35811115E+00
  6.35814683E+00  7.38800630E+00  7.38807694E+00  7.45317998E+00  7.45335207E+00
  8.04264067E+00  8.16354286E+00  8.90789230E+00  1.74541154E+01  1.80694879E+01
Alpha MO coefficients                      R   N=       25600
  6.92469828E-01  3.25090140E-02  3.88528661E-02  8.77178726E-03  1.80685019E-07
 -2.19846097E-03  0.00000000E+00 -1.71440604E-06  1.80271657E-02  0.00000000E+00
 -4.28619344E-07  2.35464776E-03  0.00000000E+00 -5.49755116E-03 -6.59161635E-03
 -5.49764863E-03  6.63779629E-08  0.00000000E+00  0.00000000E+00  5.78488889E-03
 -2.40786519E-03  5.78448761E-03  3.55694095E-08  0.00000000E+00  0.00000000E+00
  1.79751755E-03 -4.78357471E-03  0.00000000E+00  3.47482816E-07 -8.28922177E-04
  0.00000000E+00 -2.41137094E-03 -8.29213900E-04  0.00000000E+00  0.00000000E+00
  6.92469828E-01  3.25090140E-02  3.88528661E-02  8.77178726E-03 -1.80685019E-07
  2.19846097E-03  0.00000000E+00  1.71440604E-06 -1.80271657E-02  0.00000000E+00
  4.28619344E-07 -2.35464776E-03  0.00000000E+00 -5.49755116E-03 -6.59161635E-03
 -5.49764863E-03  6.63779629E-08  0.00000000E+00  0.00000000E+00  5.78488889E-03
 -2.40786519E-03  5.78448761E-03  3.55694095E-08  0.00000000E+00  0.00000000E+00
 -1.79751755E-03  4.78357471E-03  0.00000000E+00 -3.47482816E-07  8.28922177E-04
  0.00000000E+00  2.41137094E-03  8.29213900E-04  0.00000000E+00  0.00000000E+00
  1.96406615E-04 -1.66488019E-02 -1.10976618E-03  7.03854140E-04  3.06430973E-04
  0.00000000E+00  7.51021244E-03  3.13741055E-03  0.00000000E+00 -7.76618051E-04
  3.09503388E-04  4.36888589E-04 -7.49218139E-04  0.00000000E+00  0.00000000E+00
  1.96339376E-04 -1.66491164E-02 -1.10993008E-03 -3.51983117E-04  3.06398745E-04
  6.09580205E-04 -3.75546345E-03  3.13677554E-03  6.50423714E-03  1.33381534E-04
  3.09592875E-04 -4.73309626E-04  3.74587554E-04  6.06822187E-04 -6.48739610E-04
  1.96339376E-04 -1.66491164E-02 -1.10993008E-03 -3.51983117E-04  3.06398745E-04
 -6.09580205E-04 -3.75546345E-03  3.13677554E-03 -6.50423714E-03  1.33381534E-04
  3.09592875E-04 -4.73309626E-04  3.74587554E-04 -6.06822187E-04  6.48739610E-04
  1.96406615E-04 -1.66488019E-02 -1.10976618E-03 -7.03854140E-04 -3.06430973E-04
  0.00000000E+00 -7.51021244E-03 -3.13741055E-03  0.00000000E+00 -7.76618051E-04
  3.09503388E-04  4.36888589E-04 -7.49218139E-04  0.00000000E+00  0.00000000E+00
  1.96339376E-04 -1.66491164E-02 -1.10993008E-03  3.51983117E-04 -3.06398745E-04
 -6.09580205E-04  3.75546345E-03 -3.13677554E-03 -6.50423714E-03  1.33381534E-04
  3.09592875E-04 -4.73309626E-04  3.74587554E-04  6.06822187E-04 -6.48739610E-04
  1.96339376E-04 -1.66491164E-02 -1.10993008E-03  3.51983117E-04 -3.06398745E-04
  6.09580205E-04  3.75546345E-03 -3.13677554E-03  6.50423714E-03  1.33381534E-04
  3.09592875E-04 -4.73309626E-04  3.74587554E-04 -6.06822187E-04  6.48739610E-04
  6.92548915E-01  3.23145028E-02  3.77199324E-02  1.50107794E-03 -2.50721913E-08
  2.85439177E-04  0.00000000E+00  1.13664964E-08  2.56682459E-03  0.00000000E+00
  7.24964211E-08  1.37048955E-03  0.00000000E+00 -5.83303147E-03 -5.97273422E-03
 -5.83312177E-03  4.95426626E-08  0.00000000E+00  0.00000000E+00  3.78363764E-03
  4.79131617E-03  3.78247309E-03  4.06725022E-07  0.00000000E+00  0.00000000E+00
  1.62734037E-03 -2.96429608E-03  0.00000000E+00  1.25832073E-07  1.67318627E-03
  0.00000000E+00 -2.18355723E-03  1.67283085E-03  0.00000000E+00  0.00000000E+00
 -6.92548915E-01 -3.23145028E-02 -3.77199324E-02 -1.50107794E-03 -2.50721913E-08
  2.85439177E-04  0.00000000E+00  1.13664964E-08  2.56682459E-03  0.00000000E+00
  7.24964211E-08  1.37048955E-03  0.00000000E+00  5.83303147E-03  5.97273422E-03
  5.83312177E-03 -4.95426626E-08  0.00000000E+00  0.00000000E+00 -3.78363764E-03
 -4.79131617E-03 -3.78247309E-03 -4.06725022E-07  0.00000000E+00  0.00000000E+00
  1.62734037E-03 -2.96429608E-03  0.00000000E+00  1.25832073E-07  1.67318627E-03
  0.00000000E+00 -2.18355723E-03  1.67283085E-03  0.00000000E+00  0.00000000E+00
 -2.63082959E-04 -1.13725848E-02 -5.58206708E-04  7.93237411E-04  3.76991079E-04
  0.00000000E+00  6.06052074E-03  1.91778492E-03  0.00000000E+00 -9.90091996E-04
  2.77761628E-05  2.40197309E-04 -5.38343508E-04  0.00000000E+00  0.00000000E+00
 -2.63037963E-04 -1.13713351E-02 -5.58124984E-04 -3.96645063E-04  3.76887599E-04
  6.86945412E-04 -3.03026700E-03  1.91724361E-03  5.24821328E-03 -6.74390823E-05
  2.78404616E-05 -6.82500115E-04  2.69117879E-04  6.15195689E-04 -4.66112963E-04
 -2.63037963E-04 -1.13713351E-02 -5.58124984E-04 -3.96645063E-04  3.76887599E-04
 -6.86945412E-04 -3.03026700E-03  1.91724361E-03 -5.24821328E-03 -6.74390823E-05
  2.78404616E-05 -6.82500115E-04  2.69117879E-04 -6.15195689E-04  4.66112963E-04
  2.63082959E-04  1.13725848E-02  5.58206708E-04  7.93237411E-04  3.76991079E-04
  0.00000000E+00  6.06052074E-03  1.91778492E-03  0.00000000E+00  9.90091996E-04
 -2.77761628E-05 -2.40197309E-04  5.38343508E-04  0.00000000E+00  0.00000000E+00
  2.63037963E-04  1.13713351E-02  5.58124984E-04 -3.96645063E-04  3.76887599E-04
  6.86945412E-04 -3.03026700E-03  1.91724361E-03  5.24821328E-03  6.74390823E-05
 -2.78404616E-05  6.82500115E-04 -2.69117879E-04 -6.15195689E-04  4.66112963E-04
  2.63037963E-04  1.13713351E-02  5.58124984E-04 -3.96645063E-04  3.76887599E-04
 -6.86945412E-04 -3.03026700E-03  1.91724361E-03 -5.24821328E-03  6.74390823E-05
 -2.78404616E-05  6.82500115E-04 -2.69117879E-04  6.15195689E-04 -4.66112963E-04
 -1.41572653E-01  3.00636802E-01  8.09134224E-02  1.21391138E-01 -2.06651824E-06
 -3.39714517E-02  0.00000000E+00 -5.90926649E-06 -2.01539608E-02  0.00000000E+00
 -4.20513040E-06 -4.79587233E-03  0.00000000E+00  1.34926695E-03  7.56400866E-03
  1.34922328E-03 -2.26420698E-08  0.00000000E+00  0.00000000E+00  2.65873745E-03
  7.09108797E-03  2.66405243E-03 -1.63393436E-06  0.00000000E+00  0.00000000E+00
  2.01369907E-03 -1.09650559E-02  0.00000000E+00 -4.59828906E-07  2.74462241E-04
  0.00000000E+00 -2.70451664E-03  2.74433731E-04  0.00000000E+00  0.00000000E+00
 -1.41572653E-01  3.00636802E-01  8.09134224E-02  1.21391138E-01  2.06651824E-06
  3.39714517E-02  0.00000000E+00  5.90926649E-06  2.01539608E-02  0.00000000E+00
  4.20513040E-06  4.79587233E-03  0.00000000E+00  1.34926695E-03  7.56400866E-03
  1.34922328E-03 -2.26420698E-08  0.00000000E+00  0.00000000E+00  2.65873745E-03
  7.09108797E-03  2.66405243E-03 -1.63393436E-06  0.00000000E+00  0.00000000E+00
 -2.01369907E-03  1.09650559E-02  0.00000000E+00  4.59828906E-07 -2.74462241E-04
  0.00000000E+00  2.70451664E-03 -2.74433731E-04  0.00000000E+00  0.00000000E+00
  5.46265621E-02  4.75113585E-02  7.55092621E-03 -5.00416449E-03 -2.58515486E-03
  0.00000000E+00 -1.51835764E-04 -2.64851736E-03  0.00000000E+00  7.91811854E-04
  6.83388381E-04 -3.70521761E-04  8.50674062E-04  0.00000000E+00  0.00000000E+00
  5.46284863E-02  4.75004577E-02  7.54959853E-03  2.50208401E-03 -2.58508166E-03
 -4.33352170E-03  7.36985233E-05 -2.64573994E-03 -1.27761721E-04 -7.94756853E-05
  6.83423355E-04  5.01150055E-04 -4.25053489E-04 -5.80812698E-04  7.36345253E-04
  5.46284863E-02  4.75004577E-02  7.54959853E-03  2.50208401E-03 -2.58508166E-03
  4.33352170E-03  7.36985233E-05 -2.64573994E-03  1.27761721E-04 -7.94756853E-05
  6.83423355E-04  5.01150055E-04 -4.25053489E-04  5.80812698E-04 -7.36345253E-04
  5.46265621E-02  4.75113585E-02  7.55092621E-03  5.00416449E-03  2.58515486E-03
  0.00000000E+00  1.51835764E-04  2.64851736E-03  0.00000000E+00  7.91811854E-04
  6.83388381E-04 -3.70521761E-04  8.50674062E-04  0.00000000E+00  0.00000000E+00
  5.46284863E-02  4.75004577E-02  7.54959853E-03 -2.50208401E-03  2.58508166E-03
  4.33352170E-03 -7.36985233E-05  2.64573994E-03  1.27761721E-04 -7.94756853E-05
  6.83423355E-04  5.01150055E-04 -4.25053489E-04 -5.80812698E-04  7.36345253E-04
  5.46284863E-02  4.75004577E-02  7.54959853E-03 -2.50208401E-03  2.58508166E-03
 -4.33352170E-03 -7.36985233E-05  2.64573994E-03 -1.27761721E-04 -7.94756853E-05
  6.83423355E-04  5.01150055E-04 -4.25053489E-04  5.80812698E-04 -7.36345253E-04
 -1.23656115E-01  2.68534136E-01  7.49286124E-02  1.51762843E-01 -3.93847388E-06
  7.67772649E-02  0.00000000E+00 -3.55162376E-06  5.47798996E-02  0.00000000E+00
  3.02702981E-07  2.04194589E-02  0.00000000E+00  5.70947288E-03 -2.81458725E-03
  5.70913423E-03  2.26344517E-07  0.00000000E+00  0.00000000E+00  6.12926319E-03
  4.13630237E-03  6.13024750E-03  2.72903399E-07  0.00000000E+00  0.00000000E+00
  1.65747696E-03  4.45784037E-03  0.00000000E+00 -4.48776531E-07  5.30526412E-03
  0.00000000E+00 -2.22527991E-03  5.30552450E-03  0.00000000E+00  0.00000000E+00
  1.23656115E-01 -2.68534136E-01 -7.49286124E-02 -1.51762843E-01 -3.93847388E-06
  7.67772649E-02  0.00000000E+00 -3.55162376E-06  5.47798996E-02  0.00000000E+00
  3.02702981E-07  2.04194589E-02  0.00000000E+00 -5.70947288E-03  2.81458725E-03
 -5.70913423E-03 -2.26344517E-07  0.00000000E+00  0.00000000E+00 -6.12926319E-03
 -4.13630237E-03 -6.13024750E-03 -2.72903399E-07  0.00000000E+00  0.00000000E+00
  1.65747696E-03  4.45784037E-03  0.00000000E+00 -4.48776531E-07  5.30526412E-03
  0.00000000E+00 -2.22527991E-03  5.30552450E-03  0.00000000E+00  0.00000000E+00
  7.53757421E-02  8.07202751E-02  1.99948912E-02 -7.10924405E-03 -1.48387248E-03
  0.00000000E+00 -4.77384360E-03  1.31463326E-03  0.00000000E+00  1.99517393E-03