optimization of THF                                                     
Freq      RBP86                                                       def2SVP             
Number of atoms                            I                5
Info1-9                                    I   N=           9
          15          15        1002           0           0         100
           6          18         402
Full Title                                 C   N=           2
optimization of THF     
Route                                      C   N=           7
# BP86/def2SVP scf=(xqc,maxcycle=2000) opt freq EmpiricalDis
persion=GD3BJ           
Charge                                     I                0
Multiplicity                               I                1
Number of electrons                        I               18
Number of alpha electrons                  I                9
Number of beta electrons                   I                9
Number of basis functions                  I               43
Number of independent functions            I               43
Number of point charges in /Mol/           I                0
Number of translation vectors              I                0
Atomic numbers                             I   N=           5
           6           9           1           1           1
Nuclear charges                            R   N=           5
  6.00000000E+00  9.00000000E+00  1.00000000E+00  1.00000000E+00  1.00000000E+00
Current cartesian coordinates              R   N=          15
 -1.18373619E+00 -1.70446394E-04 -4.61705805E-05  1.42540717E+00  1.25642598E-04
 -1.45727211E-05 -1.90950557E+00  1.11772862E+00 -1.62716584E+00 -1.90899526E+00
  8.50889440E-01  1.78144047E+00 -1.90774654E+00 -1.96872617E+00 -1.53866455E-01
Number of symbols in /Mol/                 I                0
Int Atom Types                             I   N=           5
           0           0           0           0           0
Force Field                                I                0
Atom Types                                 C   N=           5
                                                            
MM charges                                 R   N=           5
  0.00000000E+00  0.00000000E+00  0.00000000E+00  0.00000000E+00  0.00000000E+00
Integer atomic weights                     I   N=           5
          12          19           1           1           1
Real atomic weights                        R   N=           5
  1.20000000E+01  1.89984032E+01  1.00782504E+00  1.00782504E+00  1.00782504E+00
Atom fragment info                         I   N=           5
           0           0           0           0           0
Atom residue num                           I   N=           5
           0           0           0           0           0
Nuclear spins                              I   N=           5
           0           1           1           1           1
Nuclear ZEff                               R   N=           5
 -3.60000000E+00 -6.75000000E+00 -1.00000000E+00 -1.00000000E+00 -1.00000000E+00
Nuclear ZNuc                               R   N=           5
  6.00000000E+00  9.00000000E+00  1.00000000E+00  1.00000000E+00  1.00000000E+00
Nuclear QMom                               R   N=           5
  0.00000000E+00  0.00000000E+00  0.00000000E+00  0.00000000E+00  0.00000000E+00
Nuclear GFac                               R   N=           5
  0.00000000E+00  2.62886700E+00  2.79284600E+00  2.79284600E+00  2.79284600E+00
MicOpt                                     I   N=           5
          -1          -1          -1          -1          -1
Number of residues                         I                0
Number of secondary structures             I                0
Redundant internal dimensions              I   N=           4
          14           4           6           4
Redundant internal coordinate indices      I   N=          56
           1           2           0           0           1           3
           0           0           1           4           0           0
           1           5           0           0           2           1
           3           0           2           1           4           0
           2           1           5           0           3           1
           4           0           3           1           5           0
           4           1           5           0           2           1
           4           3           2           1           5           3
           2           1           5           4           3           1
           5           4
Redundant internal coordinates             R   N=          14
  2.60914338E+00  2.10332069E+00  2.10333029E+00  2.10310801E+00  1.92304351E+00
  1.92277778E+00  1.92235806E+00  1.89777844E+00  1.89876357E+00  1.89861742E+00
  2.10908629E+00 -2.10944927E+00  2.10903025E+00 -2.06470578E+00
ZRed-IntVec                                I   N=          14
           0           0           0           0           0           0
           0           0           0           0           0           0
           0           0
ZRed-FPVec                                 R   N=          14
  0.00000000E+00  0.00000000E+00  0.00000000E+00  0.00000000E+00  0.00000000E+00
  0.00000000E+00  0.00000000E+00  0.00000000E+00  0.00000000E+00  0.00000000E+00
  0.00000000E+00  0.00000000E+00  0.00000000E+00  0.00000000E+00
ZRed-Constraint1                           R   N=          14
  2.60914338E+00  2.10332069E+00  2.10333029E+00  2.10310801E+00  1.92304351E+00
  1.92277778E+00  1.92235806E+00  1.89777844E+00  1.89876357E+00  1.89861742E+00
  2.10908629E+00 -2.10944927E+00  2.10903025E+00 -2.06470578E+00
ZRed-Constraint2                           R   N=          14
  2.06335347E+00  2.06335347E+00  2.06335347E+00  2.06335347E+00  1.91063324E+00
  1.91063324E+00  1.91063324E+00  1.91063324E+00  1.91063324E+00  1.91063324E+00
  2.09439510E+00 -2.09439510E+00  2.09439510E+00 -2.09439510E+00
SymInf integers                            I   N=          26
           1           1           1           1           1           0
           0           0           0           0           0           0
           0           0           0           0           0           0
           0           0           0           0           0           0
           0           0
RotTr to input orientation                 R   N=          12
  4.86589002E-01 -8.70727707E-01  7.11646247E-02  4.04173901E-01  2.96582704E-01
  8.65264212E-01 -7.74515720E-01 -3.92265166E-01  4.96239296E-01  7.67265663E-02
 -9.60636600E-01 -2.35391151E+00
Number of contracted shells                I               21
Number of primitive shells                 I               39
Pure/Cartesian d shells                    I                0
Pure/Cartesian f shells                    I                0
Highest angular momentum                   I                2
Largest degree of contraction              I                5
Shell types                                I   N=          21
           0           0           0           1           1          -2
           0           0           0           1           1          -2
           0           0           1           0           0           1
           0           0           1
Number of primitives per shell             I   N=          21
           5           1           1           3           1           1
           5           1           1           3           1           1
           3           1           1           3           1           1
           3           1           1
Shell to atom map                          I   N=          21
           1           1           1           1           1           1
           2           2           2           2           2           2
           3           3           3           4           4           4
           5           5           5
Primitive exponents                        R   N=          39
  1.23840169E+03  1.86290050E+02  4.22511763E+01  1.16765579E+01  3.59305065E+00
  4.02451474E-01  1.30901827E-01  9.46809706E+00  2.01035451E+00  5.47710047E-01
  1.52686138E-01  8.00000000E-01  2.89483260E+03  4.35419391E+02  9.88433289E+01
  2.74851980E+01  8.54054982E+00  1.06545780E+00  3.32473467E-01  2.26966339E+01
  4.98723393E+00  1.34916140E+00  3.48298820E-01  1.40000000E+00  1.30107010E+01
  1.96225720E+00  4.44537960E-01  1.21949620E-01  8.00000000E-01  1.30107010E+01
  1.96225720E+00  4.44537960E-01  1.21949620E-01  8.00000000E-01  1.30107010E+01
  1.96225720E+00  4.44537960E-01  1.21949620E-01  8.00000000E-01
Contraction coefficients                   R   N=          39
  5.51736505E-03  4.10888286E-02  1.82253821E-01  4.68284594E-01  4.45758173E-01
  1.00000000E+00  1.00000000E+00  5.68883320E-02  3.12940593E-01  7.60650165E-01
  1.00000000E+00  1.00000000E+00 -5.34932118E-03 -3.99677344E-02 -1.79412618E-01
 -4.68324687E-01 -4.47241605E-01  1.00000000E+00  1.00000000E+00 -6.47821482E-02
 -3.40357854E-01 -7.34858154E-01  1.00000000E+00  1.00000000E+00  3.34854848E-02
  2.34721871E-01  8.13770285E-01  1.00000000E+00  1.00000000E+00  3.34854848E-02
  2.34721871E-01  8.13770285E-01  1.00000000E+00  1.00000000E+00  3.34854848E-02
  2.34721871E-01  8.13770285E-01  1.00000000E+00  1.00000000E+00
Coordinates of each shell                  R   N=          63
 -1.18373619E+00 -1.70446394E-04 -4.61705805E-05 -1.18373619E+00 -1.70446394E-04
 -4.61705805E-05 -1.18373619E+00 -1.70446394E-04 -4.61705805E-05 -1.18373619E+00
 -1.70446394E-04 -4.61705805E-05 -1.18373619E+00 -1.70446394E-04 -4.61705805E-05
 -1.18373619E+00 -1.70446394E-04 -4.61705805E-05  1.42540717E+00  1.25642598E-04
 -1.45727211E-05  1.42540717E+00  1.25642598E-04 -1.45727211E-05  1.42540717E+00
  1.25642598E-04 -1.45727211E-05  1.42540717E+00  1.25642598E-04 -1.45727211E-05
  1.42540717E+00  1.25642598E-04 -1.45727211E-05  1.42540717E+00  1.25642598E-04
 -1.45727211E-05 -1.90950557E+00  1.11772862E+00 -1.62716584E+00 -1.90950557E+00
  1.11772862E+00 -1.62716584E+00 -1.90950557E+00  1.11772862E+00 -1.62716584E+00
 -1.90899526E+00  8.50889440E-01  1.78144047E+00 -1.90899526E+00  8.50889440E-01
  1.78144047E+00 -1.90899526E+00  8.50889440E-01  1.78144047E+00 -1.90774654E+00
 -1.96872617E+00 -1.53866455E-01 -1.90774654E+00 -1.96872617E+00 -1.53866455E-01
 -1.90774654E+00 -1.96872617E+00 -1.53866455E-01
Num ILSW                                   I              100
ILSW                                       I   N=         100
           0           0           0           0           2           0
           0           0           0           0         404          -1
           5           0           0           0           2           0
           0           0           1           0           1           0
           1           0           0           0           0           0
           0           0      100000           0          -1           0
           0           0           0           0           0           0
           0           0           0           1           0           0
           0 -2000000000           1           0           0           0
           0           0         141          52           0           0
           0           0           0           0           0           0
           0           0           0           0           0           1
           0           0           0           0           0           0
           0           0           0           0           0           0
           0           0           0           0           0           0
           0           0           0           0           0           0
           0           0           0           0
Num RLSW                                   I               52
RLSW                                       R   N=          52
  1.00000000E+00  1.00000000E+00  1.00000000E+00  1.00000000E+00  0.00000000E+00
  0.00000000E+00  0.00000000E+00  1.00000000E+00  0.00000000E+00  0.00000000E+00
  0.00000000E+00  0.00000000E+00  1.00000000E+00  0.00000000E+00  0.00000000E+00
  0.00000000E+00  0.00000000E+00  1.00000000E+00  0.00000000E+00  0.00000000E+00
  0.00000000E+00  0.00000000E+00  1.00000000E+00  0.00000000E+00  0.00000000E+00
  0.00000000E+00  0.00000000E+00  1.00000000E+00  0.00000000E+00  0.00000000E+00
  0.00000000E+00  0.00000000E+00  1.00000000E+00  0.00000000E+00  0.00000000E+00
  0.00000000E+00  0.00000000E+00  0.00000000E+00  1.00000000E+00  1.00000000E+00
  0.00000000E+00  1.00000000E+00  0.00000000E+00  0.00000000E+00  0.00000000E+00
  0.00000000E+00  0.00000000E+00  0.00000000E+00  0.00000000E+00  0.00000000E+00
  0.00000000E+00  0.00000000E+00
ECP-MxAtEC                                 I           250000
ECP-MaxLECP                                I               10
ECP-MaxAtL                                 I          2250000
ECP-MxTECP                                 I         11250000
ECP-LenNCZ                                 I                0
ECP-KFirst                                 I   N=          50
           0           0           0           0           0           0
           0           0           0           0           0           0
           0           0           0           0           0           0
           0           0           0           0           0           0
           0           0           0           0           0           0
           0           0           0           0           0           0
           0           0           0           0           0           0
           0           0           0           0           0           0
           0           0
ECP-KLast                                  I   N=          50
           0           0           0           0           0           0
           0           0           0           0           0           0
           0           0           0           0           0           0
           0           0           0           0           0           0
           0           0           0           0           0           0
           0           0           0           0           0           0
           0           0           0           0           0           0
           0           0           0           0           0           0
           0           0
ECP-LMax                                   I   N=           5
           0           0           0           0           0
ECP-LPSkip                                 I   N=           5
           1           1           1           1           1
ECP-RNFroz                                 R   N=           5
  0.00000000E+00  0.00000000E+00  0.00000000E+00  0.00000000E+00  0.00000000E+00
ECP-NLP                                    I                0
ECP-CLP1                                   R      0.000000000000000E+00
ECP-CLP2                                   R      0.000000000000000E+00
ECP-ZLP                                    R      0.000000000000000E+00
MxBond                                     I                4
NBond                                      I   N=           5
           4           1           1           1           1
IBond                                      I   N=          20
           2           3           4           5           1           0
           0           0           1           0           0           0
           1           0           0           0           1           0
           0           0
RBond                                      R   N=          20
  2.00000000E+00  1.00000000E+00  1.00000000E+00  1.00000000E+00  2.00000000E+00
  0.00000000E+00  0.00000000E+00  0.00000000E+00  1.00000000E+00  0.00000000E+00
  0.00000000E+00  0.00000000E+00  1.00000000E+00  0.00000000E+00  0.00000000E+00
  0.00000000E+00  1.00000000E+00  0.00000000E+00  0.00000000E+00  0.00000000E+00
Virial Ratio                               R      2.008387565863158E+00
SCF Energy                                 R     -1.396281885898568E+02
Total Energy                               R     -1.396281885898568E+02
RMS Force                                  R      1.148029569754039E-04
RMS Density                                R      5.650351902545140E-10
NImag                                      I                0
Job Status                                 I                1
Nuclear derivative order                   I                2
Thermal Energy                             R     -1.395873892702299E+02
Thermal Enthalpy                           R     -1.395864450854163E+02
Thermal Free Energy                        R     -1.396127869430054E+02
External E-field                           R   N=          35
  0.00000000E+00  0.00000000E+00  0.00000000E+00  0.00000000E+00  0.00000000E+00
  0.00000000E+00  0.00000000E+00  0.00000000E+00  0.00000000E+00  0.00000000E+00
  0.00000000E+00  0.00000000E+00  0.00000000E+00  0.00000000E+00  0.00000000E+00
  0.00000000E+00  0.00000000E+00  0.00000000E+00  0.00000000E+00  0.00000000E+00
  0.00000000E+00  0.00000000E+00  0.00000000E+00  0.00000000E+00  0.00000000E+00
  0.00000000E+00  0.00000000E+00  0.00000000E+00  0.00000000E+00  0.00000000E+00
  0.00000000E+00  0.00000000E+00  0.00000000E+00  0.00000000E+00  0.00000000E+00
IOpCl                                      I                0
IROHF                                      I                0
Alpha Orbital Energies                     R   N=          43
 -2.42602582E+01 -9.98415139E+00 -1.06290054E+00 -6.18515517E-01 -4.30834280E-01
 -4.17674885E-01 -4.17590289E-01 -2.82034644E-01 -2.82003762E-01  5.25378559E-02
  7.98580268E-02  1.04922203E-01  1.04961196E-01  4.12567208E-01  4.12722266E-01
  4.22587732E-01  5.73255819E-01  5.91164256E-01  5.91221890E-01  6.17204639E-01
  9.99606980E-01  9.99807742E-01  1.09418721E+00  1.29437262E+00  1.29442768E+00
  1.43287299E+00  1.62195772E+00  1.64385192E+00  1.64399476E+00  1.76838842E+00
  1.78498324E+00  1.78524387E+00  2.09134547E+00  2.23421600E+00  2.23436725E+00
  2.54123462E+00  2.72076413E+00  2.72092347E+00  3.02195340E+00  3.02198791E+00
  3.26057102E+00  3.26061378E+00  3.65204152E+00
Alpha MO coefficients                      R   N=        1849
  6.95075421E-05 -1.61544352E-04 -1.24270988E-02 -1.16263076E-03 -3.44117013E-07
  5.94960662E-08 -4.55754201E-03 -1.14278890E-07 -1.42119759E-06 -5.90014796E-05
 -2.89447126E-09  1.99422274E-08  1.03195542E-04  3.34807466E-07  9.88796654E-01
 -3.95947160E-02  2.27665412E-02 -1.65683528E-03 -5.64499468E-08 -2.72109629E-09
 -4.89347979E-03 -3.76196745E-07  1.51491415E-07 -1.52925610E-04 -3.06493211E-08
 -1.28205520E-08  2.64909625E-04  7.54803867E-08  1.11685761E-03  1.73486210E-03
  6.46245388E-04 -1.01262081E-04  1.47663321E-04  1.11749220E-03  1.73618067E-03
  6.45827893E-04 -7.72629816E-05 -1.61672292E-04  1.11776595E-03  1.73660327E-03
  6.44946763E-04  1.78899912E-04  1.41605381E-05  9.87835172E-01  4.99831622E-02
 -2.96581506E-02  2.52650856E-04  1.91236504E-07  3.82166725E-07  4.21429655E-03
 -3.03375842E-07 -3.42960778E-07 -3.04637425E-05  3.11542513E-07  1.18769976E-08
  4.79078991E-05 -1.71575782E-06 -2.43678699E-05  8.70512158E-04 -3.24062591E-03
 -1.65698915E-04  8.27647232E-08 -1.56736391E-08  4.98691304E-03  1.27460844E-06
 -6.13308307E-08  8.06361861E-04  8.69519658E-09  1.94669367E-09 -1.39652925E-03
 -5.18128047E-07 -3.75450640E-03  6.87345554E-03 -1.17536066E-03  1.36291415E-03
 -1.98493270E-03 -3.75422950E-03  6.87286166E-03 -1.17462000E-03  1.03742145E-03
  2.17295212E-03 -3.75658104E-03  6.87474582E-03 -1.17373996E-03 -2.40102642E-03
 -1.87699469E-04 -8.12161264E-02  1.50757135E-01  6.82543847E-03  1.14500618E-01
  1.15565578E-05  2.55417993E-06  1.83420927E-02  4.35889060E-07 -1.76074686E-06
 -1.23753727E-02  3.82765123E-07  5.26783041E-07  2.14343389E-02  6.04917373E-06
  2.90795313E-01  5.78331801E-01  3.95291738E-01  1.06978265E-01  9.87141934E-06
  1.88108945E-06 -3.96970672E-02 -3.11034106E-06 -3.77748079E-07 -5.27907459E-03
  4.50884282E-07 -1.28764298E-07  9.14371330E-03  1.26104076E-06  1.93945119E-02
  6.20119871E-03  2.03952594E-03 -2.83954319E-03  4.13352105E-03  1.93995440E-02
  6.20209697E-03  2.03763197E-03 -2.16192121E-03 -4.52565910E-03  1.94116325E-02
  6.20119540E-03  2.03434003E-03  5.00301809E-03  3.91138001E-04 -2.39074041E-01
  4.99219312E-01  9.83811252E-02 -6.02903685E-02  7.38120479E-06  1.49140422E-05
 -3.55560937E-02 -2.12787324E-06 -6.48381281E-06 -5.57346218E-05  6.20720225E-07
  5.27804012E-08  8.91652589E-05 -2.79671046E-06 -9.72041614E-02 -2.04793185E-01
 -1.72841168E-01  1.80146237E-01  2.60115921E-05 -4.21107159E-06 -1.09373082E-01
 -1.34478541E-05  3.63666746E-06 -3.74099572E-03 -5.41646936E-07  1.68978079E-07
  6.47850001E-03  2.08204867E-06  1.81881001E-01  3.80377232E-02  5.15752958E-03
 -1.04050196E-02  1.51515258E-02  1.81879867E-01  3.80438738E-02  5.15196388E-03
 -7.92119386E-03 -1.65869703E-02  1.81883180E-01  3.80355423E-02  5.14118593E-03
  1.83298923E-02  1.43362943E-03  1.21451583E-02 -3.83203666E-03 -6.84027386E-02
  3.58447908E-01 -6.06760340E-04  5.70573526E-05  8.91749895E-02 -2.53193752E-04
  1.90930404E-05 -1.51327557E-02  3.09931838E-07  6.73380068E-06  2.61848262E-02
  1.30011896E-06 -6.08603816E-02 -1.12049541E-01 -1.71877504E-01  5.27898563E-01
  5.48757300E-04 -2.73765787E-05 -3.13968897E-01 -3.50113044E-04  1.86897626E-05
 -6.64280404E-03 -1.28677437E-06  3.44978673E-07  1.15040908E-02  2.47447174E-05
 -1.05094241E-01 -3.24144139E-02  7.16387944E-03  3.67472214E-03 -5.37470795E-03
 -1.04919065E-01 -3.23638625E-02  7.16782531E-03  2.78797348E-03  5.87649891E-03
 -1.04275824E-01 -3.21774559E-02  7.18563143E-03 -6.46324218E-03 -5.02319397E-04
  3.19808517E-05 -3.33374356E-05 -8.10926164E-05  5.07767012E-04  3.92222563E-01
  1.23131234E-02  1.23508305E-04  1.75901579E-01  5.51925519E-03  8.55815344E-03
  2.80230339E-04 -2.03774622E-03  5.00473311E-03  8.85443052E-03 -8.50020890E-05
 -1.49936931E-04 -2.60028768E-04  9.16700589E-04 -3.58714179E-01 -1.12712558E-02
 -5.49092520E-04  2.31387942E-01  7.27128375E-03  4.64277520E-04 -4.77994718E-04
 -1.12979581E-04  2.96035274E-04 -1.52106863E-02  1.41936739E-01  4.26306532E-02
  4.10093093E-03  4.90280955E-03  7.81900853E-03  1.20644894E-01  3.62393691E-02
  3.48653590E-03  6.72236787E-03 -6.66614994E-03 -2.63111019E-01 -7.90590714E-02
 -7.55219839E-03 -6.76081227E-03 -9.98528939E-04  8.07834154E-06 -2.02139283E-05
 -1.32302962E-05 -5.47496023E-05 -1.23168339E-02  3.92138581E-01 -1.17020888E-05
 -5.53013068E-03  1.75975493E-01  1.77267031E-03  8.86147474E-03  9.91512905E-03
  1.01290956E-03 -2.76070724E-04  1.08103937E-05  1.90789637E-05  3.28207077E-05
 -1.11222908E-04  1.12642303E-02 -3.58948421E-01  6.66521130E-05 -7.26528332E-03
  2.31541928E-01  9.88722069E-05 -1.52138072E-02  5.46733420E-04  5.40806483E-05
  4.77371776E-04 -2.21420833E-01 -6.65308581E-02 -6.37906856E-03  7.72023653E-03
 -1.64767146E-03  2.33755551E-01  7.02478349E-02  6.72862845E-03 -6.77325226E-03
 -3.46915397E-03 -1.22513436E-02 -3.68110158E-03 -3.53993719E-04 -1.09844781E-03
  9.99112191E-03  2.24917787E-05 -2.29598743E-05 -1.52004256E-04  5.72436356E-06
  2.47560347E-01 -3.51053292E-02  6.23970432E-05  2.49482114E-02 -3.53844251E-03
  8.21325661E-03  4.09945104E-03 -3.73782842E-03  4.76686051E-03 -2.89027693E-02
  5.61698926E-06  1.67001523E-05  3.09432112E-06  7.00442331E-05  5.60480856E-01
 -7.94221536E-02 -4.16069472E-05 -3.96075931E-01  5.61236255E-02  5.81041660E-04
 -1.12207009E-03 -2.64291605E-04  3.36593584E-04  7.91946255E-03  1.88754626E-01
  1.18795792E-01 -2.78869660E-04  5.17751356E-03  8.23315253E-03  8.37205727E-02
  5.26894177E-02 -1.29358644E-04  9.69548336E-03 -6.52905415E-03 -2.72501826E-01
 -1.71377849E-01  4.15504403E-04 -5.34694081E-03 -3.05625086E-03  4.72382740E-06
 -8.88000762E-06 -1.70271711E-05  4.91026949E-07  3.50972641E-02  2.47703000E-01
 -9.77416951E-08  3.55320800E-03  2.50816442E-02  3.24096161E-03 -2.89053258E-02
  9.50069975E-03  1.87056703E-03 -4.09473016E-03 -6.10644610E-07 -2.08062922E-06
  1.40953189E-06 -2.76874694E-05  7.94498592E-02  5.60324933E-01  1.81263725E-05
 -5.61484388E-02 -3.95977826E-01  2.29835088E-04  7.91366927E-03  6.72756529E-04
  1.31901040E-04  1.12224500E-03 -2.05753761E-01 -1.29477187E-01  2.95740292E-04
  9.13546665E-03  1.18439356E-03  2.66401225E-01  1.67618212E-01 -3.92025417E-04
 -5.62845346E-03 -3.33921238E-03 -6.06145196E-02 -3.81213959E-02  9.27307827E-05
 -2.15617207E-03  1.16976979E-02 -1.30860661E-01  2.72488235E-01  2.09416854E+00
 -2.51243065E-01 -5.81875241E-05  4.45047514E-05 -6.73844239E-01 -1.41073560E-04
  1.44853939E-04 -6.69098183E-03 -5.53987204E-07 -1.80697329E-06  1.16160656E-02
 -4.77890430E-07  2.46515893E-02  5.56029351E-02  1.28844797E-01  2.41871041E-02
  1.97401495E-05 -1.23204050E-06 -4.93443570E-02 -3.49700188E-05 -4.63755620E-06
 -2.32255945E-03 -5.31140842E-07 -5.56466341E-07  4.02833371E-03  1.31496871E-06
 -6.91297203E-02 -1.11642282E+00 -2.57799279E-03 -8.10997675E-03  1.17824421E-02
 -6.91492275E-02 -1.11648086E+00 -2.57899818E-03 -6.17567544E-03 -1.28996687E-02
 -6.92624372E-02 -1.11663219E+00 -2.58590063E-03  1.42630719E-02  1.11407316E-03
 -1.30342882E-01  3.09413579E-01  1.07111667E+00  3.77068429E-01  1.02476282E-03
 -2.49143595E-04  8.43775043E-01  2.35288398E-03 -5.50211716E-04  1.99487004E-02
 -5.09576250E-06  2.18348663E-05 -3.46371374E-02  1.26059943E-05 -9.77086958E-02
 -1.82772501E-01 -7.42259180E-01 -3.65605292E-01  2.10832719E-04 -7.14152855E-05
  4.53830357E-01 -2.87018258E-04  9.41818351E-05 -1.21545146E-04  4.38405108E-06
  3.31986079E-06  1.98517097E-04 -1.68654235E-05  2.51855611E-02 -2.99716873E-01
  2.63038670E-02  3.20506596E-03 -4.61746423E-03  2.54287700E-02 -2.97929082E-01
  2.62860419E-02  2.46302786E-03  5.06063441E-03  2.58846627E-02 -2.94305015E-01
  2.62562937E-02 -5.62492135E-03 -4.53648068E-04  5.22208633E-05 -1.19242794E-04
 -4.78377509E-04 -2.21487176E-04 -3.39130205E-03 -4.56915221E-01 -5.95221962E-04
 -8.34439033E-03 -1.11900330E+00  4.12086918E-03 -9.95838858E-03  1.93350526E-02
  2.40098579E-03 -7.08409132E-05  4.81074551E-05  8.19214408E-05  4.31684163E-04
  1.78250706E-04 -6.93736686E-04 -9.59059055E-02 -2.45646676E-04  1.01808445E-03
  1.39363498E-01  7.61246033E-04  8.41790552E-03  3.56064952E-03  4.38711805E-04
  6.22251445E-05 -1.15137546E-01 -1.43865767E+00  5.59652387E-03 -1.51367900E-02
  5.10151063E-03  1.27062440E-01  1.58878964E+00 -6.20101224E-03  1.24888999E-02
  9.65915745E-03 -1.20331123E-02 -1.49762902E-01  5.67073273E-04  2.63344376E-03
 -1.65582239E-02  2.61208142E-04 -6.15800339E-04 -2.35071464E-03 -9.01147460E-04
  4.56854703E-01 -3.40666356E-03 -2.30822985E-03  1.11942068E+00 -8.30770062E-03
 -1.67607523E-02 -7.71992502E-05  4.75956602E-03 -9.59768366E-03  9.94238568E-03
  2.00091317E-04  3.59292196E-04  1.66640723E-03  7.26811887E-04  9.57762048E-02
 -7.32176934E-04 -9.60504393E-04 -1.39271660E-01  1.05464188E-03 -3.08167105E-03
  6.30097845E-05  8.76669962E-04 -1.78002810E-03 -8.41625930E-03 -8.02005571E-02
 -1.00344663E+00  3.86447999E-03  6.27098037E-03  1.51307892E-02 -5.94802060E-02
 -7.43807034E-01  2.84631024E-03  1.08302906E-02 -1.25070082E-02  1.39564052E-01
  1.74900779E+00 -6.84979944E-03 -1.53499161E-02 -2.63573684E-03  2.81628702E-05
 -5.18715937E-05 -1.04313337E-04 -2.63903187E-04 -8.17184042E-03 -2.42884122E-01
  5.82645740E-04  4.14304948E-02  1.23307066E+00 -2.23619865E-02  3.74831787E-02
 -9.40589127E-02 -1.29003610E-02  1.23007084E-03  9.94087006E-06  6.26717123E-05
 -2.65080372E-04  1.08233036E-04  6.01077873E-03  1.80293550E-01  3.14826901E-05
 -5.55289347E-03 -1.65109329E-01 -9.85363766E-04 -6.48743006E-03 -4.16918144E-03
 -5.84064659E-04 -2.13914412E-04  6.85698553E-01 -1.03788090E-01 -6.38257814E-03
  3.62888447E-02  2.92305803E-02 -7.80142828E-01  1.17949707E-01  7.25823051E-03
 -2.65347857E-02  1.71706904E-02  9.49969256E-02 -1.42563897E-02 -8.64384940E-04
 -5.58830135E-03  7.76838859E-02 -1.67553697E-04  1.34504092E-03 -3.36640153E-03
  7.06481325E-04 -2.42881867E-01  8.10271712E-03 -1.63576058E-03  1.23474478E+00
 -4.12465036E-02 -8.14536436E-02 -1.28003572E-03  2.58091050E-02 -4.71257477E-02
  3.74433503E-02  5.93847360E-05  4.77222149E-05  1.29521668E-03 -3.22953617E-04
  1.80352888E-01 -6.07147928E-03 -3.25295925E-04 -1.65230338E-01  5.51413815E-03
 -3.64672615E-03  2.20912843E-04  1.14434840E-03 -2.03641301E-03 -6.49208913E-03
 -5.05090643E-01  7.58412368E-02  4.72776132E-03  5.35612698E-02  3.35775063E-02
 -3.40807855E-01  5.11608521E-02  3.17124003E-03  6.56333112E-02 -2.93617397E-02
  8.46562942E-01 -1.25652671E-01 -7.88966174E-03  5.05468935E-03 -8.36970975E-03
  1.54755032E-01 -9.08261640E-01  1.59067308E+00 -8.45698451E-01 -6.18873696E-04
  1.50757083E-04  1.08017686E+00  1.51712756E-03 -4.44929674E-04 -2.14269810E-02
 -8.30985933E-06  5.24377571E-05  3.69419711E-02  2.87865437E-05  1.37232524E-02
  1.17153971E-01 -7.22071715E-01  3.46362973E-01  2.19097230E-04 -6.03301124E-05
  6.57360239E-02 -1.78286978E-04  6.28544982E-05  2.46778640E-02 -3.59416560E-08
  2.00507472E-06 -4.27484358E-02 -1.12575422E-05  9.76509098E-02 -2.95397385E-01
 -2.03942790E-02 -2.87287370E-03  4.24982513E-03  9.81995662E-02 -2.95489929E-01
 -2.04149035E-02 -2.14732688E-03 -4.65395806E-03  9.90251242E-02 -2.95756754E-01
 -2.04577464E-02  5.10954736E-03  3.69249080E-04  2.17229184E-01 -1.13510581E+00
  2.41534621E+00  4.32925339E-01 -1.25530216E-03 -9.21219895E-05 -6.21411189E-01
  2.35687956E-03  2.36555941E-05  3.85511866E-02  1.88907481E-06 -1.48417318E-05
 -6.66524020E-02 -2.65142745E-04  3.27622085E-02  1.17668256E-01 -1.62181374E-02
  2.15247079E-02 -1.29322518E-04 -2.71271337E-05 -5.69943784E-02 -2.60024382E-04
  6.96074866E-06 -2.60562394E-03  2.33754793E-06  2.32626815E-06  4.50122956E-03
  3.88757986E-05  6.15335325E-01 -1.05984953E+00 -2.90314599E-03  6.61605373E-02
 -9.63998622E-02  6.15390749E-01 -1.05952207E+00 -2.86836457E-03  5.03591808E-02