optimization of THF                                                             
Freq      RBP86                                                       def2SVP   
Number of atoms                            I                5                   
Info1-9                                    I   N=           9                   
          15          15        1002           0           0         100        
           6          18         402                                            
Full Title                                 C   N=           2                   
optimization of THF                                                             
Route                                      C   N=           7                   
# BP86/def2SVP scf=(xqc,maxcycle=2000) opt freq EmpiricalDis                    
persion=GD3BJ                                                                   
Charge                                     I                0                   
Multiplicity                               I                1                   
Number of electrons                        I               18                   
Number of alpha electrons                  I                9                   
Number of beta electrons                   I                9                   
Number of basis functions                  I               43                   
Number of independent functions            I               43                   
Number of point charges in /Mol/           I                0                   
Number of translation vectors              I                0                   
Atomic numbers                             I   N=           5                   
           6           9           1           1           1                    
Nuclear charges                            R   N=           5                   
  6.00000000E+00  9.00000000E+00  1.00000000E+00  1.00000000E+00  1.00000000E+00
Current cartesian coordinates              R   N=          15                   
 -1.18373619E+00 -1.70446394E-04 -4.61705805E-05  1.42540717E+00  1.25642598E-04
 -1.45727211E-05 -1.90950557E+00  1.11772862E+00 -1.62716584E+00 -1.90899526E+00
  8.50889440E-01  1.78144047E+00 -1.90774654E+00 -1.96872617E+00 -1.53866455E-01
Number of symbols in /Mol/                 I                0                   
Int Atom Types                             I   N=           5                   
           0           0           0           0           0                    
Force Field                                I                0                   
Atom Types                                 C   N=           5                   
                                                                                
MM charges                                 R   N=           5                   
  0.00000000E+00  0.00000000E+00  0.00000000E+00  0.00000000E+00  0.00000000E+00
Integer atomic weights                     I   N=           5                   
          12          19           1           1           1                    
Real atomic weights                        R   N=           5                   
  1.20000000E+01  1.89984032E+01  1.00782504E+00  1.00782504E+00  1.00782504E+00
Atom fragment info                         I   N=           5                   
           0           0           0           0           0                    
Atom residue num                           I   N=           5                   
           0           0           0           0           0                    
Nuclear spins                              I   N=           5                   
           0           1           1           1           1                    
Nuclear ZEff                               R   N=           5                   
 -3.60000000E+00 -6.75000000E+00 -1.00000000E+00 -1.00000000E+00 -1.00000000E+00
Nuclear ZNuc                               R   N=           5                   
  6.00000000E+00  9.00000000E+00  1.00000000E+00  1.00000000E+00  1.00000000E+00
Nuclear QMom                               R   N=           5                   
  0.00000000E+00  0.00000000E+00  0.00000000E+00  0.00000000E+00  0.00000000E+00
Nuclear GFac                               R   N=           5                   
  0.00000000E+00  2.62886700E+00  2.79284600E+00  2.79284600E+00  2.79284600E+00
MicOpt                                     I   N=           5                   
          -1          -1          -1          -1          -1                    
Number of residues                         I                0                   
Number of secondary structures             I                0                   
Redundant internal dimensions              I   N=           4                   
          14           4           6           4                                
Redundant internal coordinate indices      I   N=          56                   
           1           2           0           0           1           3        
           0           0           1           4           0           0        
           1           5           0           0           2           1        
           3           0           2           1           4           0        
           2           1           5           0           3           1        
           4           0           3           1           5           0        
           4           1           5           0           2           1        
           4           3           2           1           5           3        
           2           1           5           4           3           1        
           5           4                                                        
Redundant internal coordinates             R   N=          14                   
  2.60914338E+00  2.10332069E+00  2.10333029E+00  2.10310801E+00  1.92304351E+00
  1.92277778E+00  1.92235806E+00  1.89777844E+00  1.89876357E+00  1.89861742E+00
  2.10908629E+00 -2.10944927E+00  2.10903025E+00 -2.06470578E+00                
ZRed-IntVec                                I   N=          14                   
           0           0           0           0           0           0        
           0           0           0           0           0           0        
           0           0                                                        
ZRed-FPVec                                 R   N=          14                   
  0.00000000E+00  0.00000000E+00  0.00000000E+00  0.00000000E+00  0.00000000E+00
  0.00000000E+00  0.00000000E+00  0.00000000E+00  0.00000000E+00  0.00000000E+00
  0.00000000E+00  0.00000000E+00  0.00000000E+00  0.00000000E+00                
ZRed-Constraint1                           R   N=          14                   
  2.60914338E+00  2.10332069E+00  2.10333029E+00  2.10310801E+00  1.92304351E+00
  1.92277778E+00  1.92235806E+00  1.89777844E+00  1.89876357E+00  1.89861742E+00
  2.10908629E+00 -2.10944927E+00  2.10903025E+00 -2.06470578E+00                
ZRed-Constraint2                           R   N=          14                   
  2.06335347E+00  2.06335347E+00  2.06335347E+00  2.06335347E+00  1.91063324E+00
  1.91063324E+00  1.91063324E+00  1.91063324E+00  1.91063324E+00  1.91063324E+00
  2.09439510E+00 -2.09439510E+00  2.09439510E+00 -2.09439510E+00                
SymInf integers                            I   N=          26                   
           1           1           1           1           1           0        
           0           0           0           0           0           0        
           0           0           0           0           0           0        
           0           0           0           0           0           0        
           0           0                                                        
RotTr to input orientation                 R   N=          12                   
  4.86589002E-01 -8.70727707E-01  7.11646247E-02  4.04173901E-01  2.96582704E-01
  8.65264212E-01 -7.74515720E-01 -3.92265166E-01  4.96239296E-01  7.67265663E-02
 -9.60636600E-01 -2.35391151E+00                                                
Number of contracted shells                I               21                   
Number of primitive shells                 I               39                   
Pure/Cartesian d shells                    I                0                   
Pure/Cartesian f shells                    I                0                   
Highest angular momentum                   I                2                   
Largest degree of contraction              I                5                   
Shell types                                I   N=          21                   
           0           0           0           1           1          -2        
           0           0           0           1           1          -2        
           0           0           1           0           0           1        
           0           0           1                                            
Number of primitives per shell             I   N=          21                   
           5           1           1           3           1           1        
           5           1           1           3           1           1        
           3           1           1           3           1           1        
           3           1           1                                            
Shell to atom map                          I   N=          21                   
           1           1           1           1           1           1        
           2           2           2           2           2           2        
           3           3           3           4           4           4        
           5           5           5                                            
Primitive exponents                        R   N=          39                   
  1.23840169E+03  1.86290050E+02  4.22511763E+01  1.16765579E+01  3.59305065E+00
  4.02451474E-01  1.30901827E-01  9.46809706E+00  2.01035451E+00  5.47710047E-01
  1.52686138E-01  8.00000000E-01  2.89483260E+03  4.35419391E+02  9.88433289E+01
  2.74851980E+01  8.54054982E+00  1.06545780E+00  3.32473467E-01  2.26966339E+01
  4.98723393E+00  1.34916140E+00  3.48298820E-01  1.40000000E+00  1.30107010E+01
  1.96225720E+00  4.44537960E-01  1.21949620E-01  8.00000000E-01  1.30107010E+01
  1.96225720E+00  4.44537960E-01  1.21949620E-01  8.00000000E-01  1.30107010E+01
  1.96225720E+00  4.44537960E-01  1.21949620E-01  8.00000000E-01                
Contraction coefficients                   R   N=          39                   
  5.51736505E-03  4.10888286E-02  1.82253821E-01  4.68284594E-01  4.45758173E-01
  1.00000000E+00  1.00000000E+00  5.68883320E-02  3.12940593E-01  7.60650165E-01
  1.00000000E+00  1.00000000E+00 -5.34932118E-03 -3.99677344E-02 -1.79412618E-01
 -4.68324687E-01 -4.47241605E-01  1.00000000E+00  1.00000000E+00 -6.47821482E-02
 -3.40357854E-01 -7.34858154E-01  1.00000000E+00  1.00000000E+00  3.34854848E-02
  2.34721871E-01  8.13770285E-01  1.00000000E+00  1.00000000E+00  3.34854848E-02
  2.34721871E-01  8.13770285E-01  1.00000000E+00  1.00000000E+00  3.34854848E-02
  2.34721871E-01  8.13770285E-01  1.00000000E+00  1.00000000E+00                
Coordinates of each shell                  R   N=          63                   
 -1.18373619E+00 -1.70446394E-04 -4.61705805E-05 -1.18373619E+00 -1.70446394E-04
 -4.61705805E-05 -1.18373619E+00 -1.70446394E-04 -4.61705805E-05 -1.18373619E+00
 -1.70446394E-04 -4.61705805E-05 -1.18373619E+00 -1.70446394E-04 -4.61705805E-05
 -1.18373619E+00 -1.70446394E-04 -4.61705805E-05  1.42540717E+00  1.25642598E-04
 -1.45727211E-05  1.42540717E+00  1.25642598E-04 -1.45727211E-05  1.42540717E+00
  1.25642598E-04 -1.45727211E-05  1.42540717E+00  1.25642598E-04 -1.45727211E-05
  1.42540717E+00  1.25642598E-04 -1.45727211E-05  1.42540717E+00  1.25642598E-04
 -1.45727211E-05 -1.90950557E+00  1.11772862E+00 -1.62716584E+00 -1.90950557E+00
  1.11772862E+00 -1.62716584E+00 -1.90950557E+00  1.11772862E+00 -1.62716584E+00
 -1.90899526E+00  8.50889440E-01  1.78144047E+00 -1.90899526E+00  8.50889440E-01
  1.78144047E+00 -1.90899526E+00  8.50889440E-01  1.78144047E+00 -1.90774654E+00
 -1.96872617E+00 -1.53866455E-01 -1.90774654E+00 -1.96872617E+00 -1.53866455E-01
 -1.90774654E+00 -1.96872617E+00 -1.53866455E-01                                
Num ILSW                                   I              100                   
ILSW                                       I   N=         100                   
           0           0           0           0           2           0        
           0           0           0           0         404          -1        
           5           0           0           0           2           0        
           0           0           1           0           1           0        
           1           0           0           0           0           0        
           0           0      100000           0          -1           0        
           0           0           0           0           0           0        
           0           0           0           1           0           0        
           0 -2000000000           1           0           0           0        
           0           0         141          52           0           0        
           0           0           0           0           0           0        
           0           0           0           0           0           1        
           0           0           0           0           0           0        
           0           0           0           0           0           0        
           0           0           0           0           0           0        
           0           0           0           0           0           0        
           0           0           0           0                                
Num RLSW                                   I               52                   
RLSW                                       R   N=          52                   
  1.00000000E+00  1.00000000E+00  1.00000000E+00  1.00000000E+00  0.00000000E+00
  0.00000000E+00  0.00000000E+00  1.00000000E+00  0.00000000E+00  0.00000000E+00
  0.00000000E+00  0.00000000E+00  1.00000000E+00  0.00000000E+00  0.00000000E+00
  0.00000000E+00  0.00000000E+00  1.00000000E+00  0.00000000E+00  0.00000000E+00
  0.00000000E+00  0.00000000E+00  1.00000000E+00  0.00000000E+00  0.00000000E+00
  0.00000000E+00  0.00000000E+00  1.00000000E+00  0.00000000E+00  0.00000000E+00
  0.00000000E+00  0.00000000E+00  1.00000000E+00  0.00000000E+00  0.00000000E+00
  0.00000000E+00  0.00000000E+00  0.00000000E+00  1.00000000E+00  1.00000000E+00
  0.00000000E+00  1.00000000E+00  0.00000000E+00  0.00000000E+00  0.00000000E+00
  0.00000000E+00  0.00000000E+00  0.00000000E+00  0.00000000E+00  0.00000000E+00
  0.00000000E+00  0.00000000E+00                                                
ECP-MxAtEC                                 I           250000                   
ECP-MaxLECP                                I               10                   
ECP-MaxAtL                                 I          2250000                   
ECP-MxTECP                                 I         11250000                   
ECP-LenNCZ                                 I                0                   
ECP-KFirst                                 I   N=          50                   
           0           0           0           0           0           0        
           0           0           0           0           0           0        
           0           0           0           0           0           0        
           0           0           0           0           0           0        
           0           0           0           0           0           0        
           0           0           0           0           0           0        
           0           0           0           0           0           0        
           0           0           0           0           0           0        
           0           0                                                        
ECP-KLast                                  I   N=          50                   
           0           0           0           0           0           0        
           0           0           0           0           0           0        
           0           0           0           0           0           0        
           0           0           0           0           0           0        
           0           0           0           0           0           0        
           0           0           0           0           0           0        
           0           0           0           0           0           0        
           0           0           0           0           0           0        
           0           0                                                        
ECP-LMax                                   I   N=           5                   
           0           0           0           0           0                    
ECP-LPSkip                                 I   N=           5                   
           1           1           1           1           1                    
ECP-RNFroz                                 R   N=           5                   
  0.00000000E+00  0.00000000E+00  0.00000000E+00  0.00000000E+00  0.00000000E+00
ECP-NLP                                    I                0                   
ECP-CLP1                                   R      0.000000000000000E+00         
ECP-CLP2                                   R      0.000000000000000E+00         
ECP-ZLP                                    R      0.000000000000000E+00         
MxBond                                     I                4                   
NBond                                      I   N=           5                   
           4           1           1           1           1                    
IBond                                      I   N=          20                   
           2           3           4           5           1           0        
           0           0           1           0           0           0        
           1           0           0           0           1           0        
           0           0                                                        
RBond                                      R   N=          20                   
  2.00000000E+00  1.00000000E+00  1.00000000E+00  1.00000000E+00  2.00000000E+00
  0.00000000E+00  0.00000000E+00  0.00000000E+00  1.00000000E+00  0.00000000E+00
  0.00000000E+00  0.00000000E+00  1.00000000E+00  0.00000000E+00  0.00000000E+00
  0.00000000E+00  1.00000000E+00  0.00000000E+00  0.00000000E+00  0.00000000E+00
Virial Ratio                               R      2.008387565863158E+00         
SCF Energy                                 R     -1.396281885898568E+02         
Total Energy                               R     -1.396281885898568E+02         
RMS Force                                  R      1.148029569754039E-04         
RMS Density                                R      5.650351902545140E-10         
NImag                                      I                0                   
Job Status                                 I                1                   
Nuclear derivative order                   I                2                   
Thermal Energy                             R     -1.395873892702299E+02         
Thermal Enthalpy                           R     -1.395864450854163E+02         
Thermal Free Energy                        R     -1.396127869430054E+02         
External E-field                           R   N=          35                   
  0.00000000E+00  0.00000000E+00  0.00000000E+00  0.00000000E+00  0.00000000E+00
  0.00000000E+00  0.00000000E+00  0.00000000E+00  0.00000000E+00  0.00000000E+00
  0.00000000E+00  0.00000000E+00  0.00000000E+00  0.00000000E+00  0.00000000E+00
  0.00000000E+00  0.00000000E+00  0.00000000E+00  0.00000000E+00  0.00000000E+00
  0.00000000E+00  0.00000000E+00  0.00000000E+00  0.00000000E+00  0.00000000E+00
  0.00000000E+00  0.00000000E+00  0.00000000E+00  0.00000000E+00  0.00000000E+00
  0.00000000E+00  0.00000000E+00  0.00000000E+00  0.00000000E+00  0.00000000E+00
IOpCl                                      I                0                   
IROHF                                      I                0                   
Alpha Orbital Energies                     R   N=          43                   
 -2.42602582E+01 -9.98415139E+00 -1.06290054E+00 -6.18515517E-01 -4.30834280E-01
 -4.17674885E-01 -4.17590289E-01 -2.82034644E-01 -2.82003762E-01  5.25378559E-02
  7.98580268E-02  1.04922203E-01  1.04961196E-01  4.12567208E-01  4.12722266E-01
  4.22587732E-01  5.73255819E-01  5.91164256E-01  5.91221890E-01  6.17204639E-01
  9.99606980E-01  9.99807742E-01  1.09418721E+00  1.29437262E+00  1.29442768E+00
  1.43287299E+00  1.62195772E+00  1.64385192E+00  1.64399476E+00  1.76838842E+00
  1.78498324E+00  1.78524387E+00  2.09134547E+00  2.23421600E+00  2.23436725E+00
  2.54123462E+00  2.72076413E+00  2.72092347E+00  3.02195340E+00  3.02198791E+00
  3.26057102E+00  3.26061378E+00  3.65204152E+00                                
Alpha MO coefficients                      R   N=        1849
 -2.61326166E-04 -9.20155562E-05 -1.25395524E-02 -1.94895743E-04  2.63437307E-07
 -2.89189110E-07 -4.41324925E-03  1.78463640E-08 -1.58445922E-06 -2.64913289E-04
 -2.81751652E-08  1.56247107E-08  4.59875629E-04  4.38627103E-07  9.96640536E-01
 -2.32782922E-02  3.47426592E-02 -3.69143279E-03 -8.18969538E-07  8.65044066E-07
 -3.08159299E-03  1.68873886E-07 -4.30601319E-07 -2.12479727E-04  5.12798175E-09
 -1.77846052E-08  3.68070594E-04  5.74263330E-08  9.28922044E-04  1.81294519E-03
  6.12989898E-04 -1.18067167E-04  1.72123076E-04  9.29133298E-04  1.81422891E-03
  6.12544773E-04 -9.00386547E-05 -1.88434158E-04  9.28893152E-04  1.81450494E-03
  6.11643174E-04  2.08448159E-04  1.64609600E-05  9.92517468E-01  3.99734482E-02
 -3.13968073E-02  1.45360880E-04  6.96624338E-07 -9.79828245E-07  4.63519084E-03
 -7.79561564E-08 -5.85425651E-07  8.97987286E-05  3.18543143E-07 -3.20144948E-08
 -1.60228287E-04 -1.76480596E-06 -9.66427335E-04 -1.04004950E-03 -3.95776997E-03
 -4.36577354E-03  1.09829112E-07 -1.55553297E-08  7.29629698E-03  1.11362265E-06
 -3.96085799E-08  9.21415970E-04  3.23886046E-08 -2.10040051E-09 -1.59578863E-03
 -5.66951498E-07 -7.04249427E-03  6.16649556E-03 -1.28420771E-03  1.56755216E-03
 -2.28290268E-03 -7.04385034E-03  6.16507902E-03 -1.28337889E-03  1.19326262E-03
  2.49917555E-03 -7.04649491E-03  6.16699169E-03 -1.28227819E-03 -2.76156517E-03
 -2.15934104E-04 -1.40622463E-03  2.05392522E-02  2.02735890E-03 -3.27158247E-03
 -1.23690613E-05  2.50528196E-06  1.66473337E-03 -6.12630916E-06 -4.78653126E-07
  6.04412283E-03  3.78672766E-07 -5.66737410E-08 -1.04688081E-02 -5.16135970E-06
 -2.83663071E-01 -6.17123652E-01 -4.62053821E-01  1.34283820E-01  8.65073877E-05
 -1.41976587E-05 -1.02048721E-01 -6.01469430E-05  9.88905515E-06  1.34590216E-03
 -7.01104503E-07  1.72467708E-07 -2.33150924E-03  1.99647501E-06  5.29370920E-03
 -4.19617303E-03  2.17069902E-03  4.74456872E-04 -6.89905449E-04  5.30089248E-03
 -4.19725825E-03  2.17109121E-03  3.60849032E-04  7.54647279E-04  5.31357482E-03
 -4.20643283E-03  2.17213430E-03 -8.32592018E-04 -6.49783552E-05 -6.49515352E-05
  1.46636887E-04  4.83829199E-05  1.56008805E-04  1.53523083E-02 -5.18016904E-02
  1.09929024E-05  2.60643932E-02 -8.78499345E-02 -7.89448553E-05 -2.70641499E-02
  1.51425403E-03 -2.88123381E-05  8.02656830E-03 -4.76532115E-07  2.64379145E-06
 -4.78774153E-05  2.85056332E-04 -1.89241468E-01  6.38077623E-01 -1.65547588E-04
  1.29757174E-01 -4.37513286E-01 -1.37981403E-05  1.51607411E-02  2.07085197E-04
  3.05102311E-06 -4.49621892E-03 -4.77478488E-02 -8.20562134E-02  4.85746073E-03
  8.33981217E-04  4.44416001E-04  3.72670745E-02  6.40204411E-02 -3.78525037E-03
 -1.87734646E-03  7.99302585E-04  1.04778166E-02  1.79820041E-02 -1.06201962E-03
 -2.04121444E-04  2.96339007E-03 -7.77929899E-05  1.68541267E-04  1.20148449E-04
  1.44007835E-04  5.17335284E-02  1.53510002E-02 -1.61083241E-05  8.78191074E-02
  2.60342337E-02 -1.31943649E-03  8.02636726E-03 -8.13484066E-05 -7.52496668E-04
  2.70627517E-02 -1.29751771E-05 -2.67921272E-05 -7.57092201E-05  3.46931816E-04
 -6.38092756E-01 -1.89243281E-01 -2.06266500E-04  4.37532612E-01  1.29762785E-01
 -1.83403190E-04 -4.49615727E-03 -1.18550293E-05 -9.19570964E-05 -1.51598371E-02
 -1.54790852E-02 -2.66163208E-02  1.58059272E-03 -2.36750227E-03 -1.66805395E-03
 -3.36190522E-02 -5.77677529E-02  3.42650730E-03 -2.00593288E-03  1.04338504E-03
  4.91008866E-02  8.42704275E-02 -4.99390758E-03  1.68258799E-04 -6.22808062E-04
  2.23389825E-01 -4.92952604E-01 -1.14110685E-01  1.50527166E-01 -2.60269726E-04
 -3.17033340E-04  5.83807813E-02 -6.25511046E-05 -9.89559839E-05 -2.43408658E-03
  5.29599375E-06 -6.65461577E-06  4.20379738E-03  1.74684535E-05  1.09996923E-02
  3.47731767E-02  2.27488121E-02 -1.37832973E-02 -1.81919514E-04 -1.03813512E-05
  5.32126252E-03  1.31702377E-04  1.91506614E-05  2.31425875E-03  5.79782104E-06
 -5.37746485E-07 -4.00870755E-03 -5.66906779E-07 -2.06026185E-01 -4.70775038E-02
 -2.78196220E-03  1.13452658E-02 -1.65445296E-02 -2.06401330E-01 -4.72504435E-02
 -2.78268460E-03  8.64486245E-03  1.81128427E-02 -2.05816472E-01 -4.69704185E-02
 -2.76428488E-03 -1.99977848E-02 -1.57307113E-03  2.25353599E-04 -4.85989034E-04
 -1.59747428E-04  6.56031940E-05  3.28882803E-01  3.24707643E-01  5.80917717E-05
  1.08429731E-01  1.07119297E-01  1.05839159E-02 -8.13181318E-03  7.41130595E-03
  6.12246098E-03 -8.22883226E-03  1.07780871E-05  3.57103077E-05  2.91308237E-05
 -2.12307045E-05  5.63829912E-02  5.57043293E-02  7.84713609E-06 -5.20481265E-02
 -5.14200107E-02  6.62273320E-04 -4.74004727E-03  4.60887839E-04  3.77456454E-04
 -4.80229486E-03 -6.72599608E-02 -3.04571857E-02 -9.96864594E-04  1.34356276E-02
  7.31302244E-03  3.57620573E-01  1.62021919E-01  5.27224910E-03  1.13907918E-03
 -9.78388753E-03 -2.90879860E-01 -1.31641180E-01 -4.28392419E-03 -7.56473517E-03
  9.40637764E-03 -1.11749177E-05  3.19791834E-05 -3.62464534E-05 -1.93789387E-05
  3.24703769E-01 -3.28875681E-01  2.13933906E-05  1.07044338E-01 -1.08487318E-01
  6.40246733E-03  8.24077482E-03 -1.22257845E-02  3.71870451E-03 -8.12906642E-03
  1.07901730E-05  2.94301275E-05  3.52959508E-06  1.36715666E-04  5.56786988E-02
 -5.64254654E-02 -8.33981788E-05 -5.13929789E-02  5.20820800E-02  3.97926049E-04
  4.80020823E-03 -7.60717188E-04  2.34472548E-04 -4.74045962E-03  3.74405409E-01
  1.69588990E-01  5.52795779E-03 -2.70453549E-03  8.74738719E-03 -1.29103461E-01
 -5.85073805E-02 -1.90702531E-03  1.44168742E-02 -3.55072521E-03 -2.45330370E-01
 -1.11059233E-01 -3.61270382E-03 -4.79309768E-03 -1.22194906E-02 -6.87186309E-02
  1.71576110E-01 -3.56375347E-02  3.50089502E-01 -3.82253357E-06  8.70492412E-05
  7.83539709E-02 -3.76200195E-05  4.54597176E-05 -1.84176811E-02  7.84808803E-06
  2.65767593E-06  3.19062194E-02 -4.97897424E-06  3.94253163E-02  8.90943475E-02
 -3.10873244E-02  5.51654338E-01  4.66197861E-04 -2.03144713E-04 -3.18839856E-01
 -3.15068909E-04  1.39050107E-04 -8.86497108E-03 -5.64994947E-06  4.62358262E-08
  1.53548260E-02  1.25234448E-05 -4.36473138E-02 -1.73739287E-02  8.33270569E-03
 -2.43480255E-04  3.57199810E-04 -4.35457813E-02 -1.73808917E-02  8.33596669E-03
 -1.88375105E-04 -3.95162794E-04 -4.35665602E-02 -1.74547920E-02  8.33613165E-03
  4.43078214E-04  3.58534938E-05  0.00000000E+00  0.00000000E+00  0.00000000E+00
  0.00000000E+00  0.00000000E+00  0.00000000E+00  0.00000000E+00  0.00000000E+00
  0.00000000E+00  0.00000000E+00  0.00000000E+00  0.00000000E+00  0.00000000E+00
  0.00000000E+00  0.00000000E+00  0.00000000E+00  0.00000000E+00  0.00000000E+00
  0.00000000E+00  0.00000000E+00  0.00000000E+00  0.00000000E+00  0.00000000E+00
  0.00000000E+00  0.00000000E+00  0.00000000E+00  0.00000000E+00  0.00000000E+00
  0.00000000E+00  0.00000000E+00  0.00000000E+00  0.00000000E+00  0.00000000E+00
  0.00000000E+00  0.00000000E+00  0.00000000E+00  0.00000000E+00  0.00000000E+00
  0.00000000E+00  0.00000000E+00  0.00000000E+00  0.00000000E+00  0.00000000E+00
  0.00000000E+00  0.00000000E+00  0.00000000E+00  0.00000000E+00  0.00000000E+00
  0.00000000E+00  0.00000000E+00  0.00000000E+00  0.00000000E+00  0.00000000E+00
  0.00000000E+00  0.00000000E+00  0.00000000E+00  0.00000000E+00  0.00000000E+00
  0.00000000E+00  0.00000000E+00  0.00000000E+00  0.00000000E+00  0.00000000E+00
  0.00000000E+00  0.00000000E+00  0.00000000E+00  0.00000000E+00  0.00000000E+00
  0.00000000E+00  0.00000000E+00  0.00000000E+00  0.00000000E+00  0.00000000E+00
  0.00000000E+00  0.00000000E+00  0.00000000E+00  0.00000000E+00  0.00000000E+00
  0.00000000E+00  0.00000000E+00  0.00000000E+00  0.00000000E+00  0.00000000E+00
  0.00000000E+00  0.00000000E+00  0.00000000E+00  0.00000000E+00  0.00000000E+00
  0.00000000E+00  0.00000000E+00  0.00000000E+00  0.00000000E+00  0.00000000E+00
  0.00000000E+00  0.00000000E+00  0.00000000E+00  0.00000000E+00  0.00000000E+00
  0.00000000E+00  0.00000000E+00  0.00000000E+00  0.00000000E+00  0.00000000E+00
  0.00000000E+00  0.00000000E+00  0.00000000E+00  0.00000000E+00  0.00000000E+00
  0.00000000E+00  0.00000000E+00  0.00000000E+00  0.00000000E+00  0.00000000E+00
  0.00000000E+00  0.00000000E+00  0.00000000E+00  0.00000000E+00  0.00000000E+00
  0.00000000E+00  0.00000000E+00  0.00000000E+00  0.00000000E+00  0.00000000E+00
  0.00000000E+00  0.00000000E+00  0.00000000E+00  0.00000000E+00  0.00000000E+00
  0.00000000E+00  0.00000000E+00  0.00000000E+00  0.00000000E+00  0.00000000E+00