dsfdsf                                                                  
SP        RPBEPBE                                                     SVP                 
Number of atoms                            I                5
Info1-9                                    I   N=           9
          16          14           0           0           0         111
           1          18         902
Full Title                                 C   N=           1
dsfdsf      
Route                                      C   N=           5
#p pbepbe/SVP pop=full scf=xqc 6d 10f gfinput iop(3/33=1)   
Charge                                     I                2
Multiplicity                               I                1
Number of electrons                        I               52
Number of alpha electrons                  I               26
Number of beta electrons                   I               26
Number of basis functions                  I               86
Number of independent functions            I               86
Number of point charges in /Mol/           I                0
Number of translation vectors              I                0
Atomic numbers                             I   N=           5
          26           6           6           8           8
Nuclear charges                            R   N=           5
  2.60000000E+01  6.00000000E+00  6.00000000E+00  8.00000000E+00  8.00000000E+00
Current cartesian coordinates              R   N=          15
 -4.33680869E-19  4.95683681E-18  8.11351973E-03 -8.17922119E-16  3.59414108E+00
 -2.47478719E-03  1.51181151E-15 -3.59414108E+00 -2.47478719E-03 -1.18481613E-15
  6.59944299E+00 -1.13283792E-02  2.76991971E-15 -6.59944299E+00 -1.13283792E-02
Number of symbols in /Mol/                 I                0
Force Field                                I                0
Atom Types                                 C   N=           5
                                                            
Int Atom Types                             I   N=           5
           0           0           0           0           0
MM charges                                 R   N=           5
  0.00000000E+00  0.00000000E+00  0.00000000E+00  0.00000000E+00  0.00000000E+00
Integer atomic weights                     I   N=           5
          56          12          12          16          16
Real atomic weights                        R   N=           5
  5.59349393E+01  1.20000000E+01  1.20000000E+01  1.59949146E+01  1.59949146E+01
Atom fragment info                         I   N=           5
           0           0           0           0           0
Atom residue num                           I   N=           5
           0           0           0           0           0
Nuclear spins                              I   N=           5
           0           0           0           0           0
Nuclear ZEff                               R   N=           5
 -2.52200000E+01 -3.60000000E+00 -3.60000000E+00 -5.60000000E+00 -5.60000000E+00
Nuclear ZNuc                               R   N=           5
  2.60000000E+01  6.00000000E+00  6.00000000E+00  8.00000000E+00  8.00000000E+00
Nuclear QMom                               R   N=           5
  0.00000000E+00  0.00000000E+00  0.00000000E+00  0.00000000E+00  0.00000000E+00
Nuclear GFac                               R   N=           5
  0.00000000E+00  0.00000000E+00  0.00000000E+00  0.00000000E+00  0.00000000E+00
MicOpt                                     I   N=           5
          -1          -1          -1          -1          -1
Number of residues                         I                0
Number of secondary structures             I                0
SymInf integers                            I   N=          26
           2           4           1           1           1          -1
          -1           1          -1           1           1           1
          -1           1           0           0           0           0
           0           0           0           0           0           0
           0           0
RotTr to input orientation                 R   N=          12
 -3.29744859E-01 -3.29744859E-01  8.84611019E-01  7.05260961E-01 -7.08946465E-01
 -1.37379695E-03  6.27594857E-01  6.23428615E-01  4.66327629E-01 -5.09200324E-03
 -5.05820038E-03 -3.78355841E-03
Number of contracted shells                I               34
Number of primitive shells                 I               76
Pure/Cartesian d shells                    I                1
Pure/Cartesian f shells                    I                1
Highest angular momentum                   I                2
Largest degree of contraction              I                6
Shell types                                I   N=          34
           0           0           0           0           0           1
           1           1           2           2           0           0
           0           1           1           2           0           0
           0           1           1           2           0           0
           0           1           1           2           0           0
           0           1           1           2
Number of primitives per shell             I   N=          34
           6           3           3           1           1           5
           3           1           4           1           5           1
           1           3           1           1           5           1
           1           3           1           1           5           1
           1           3           1           1           5           1
           1           3           1           1
Shell to atom map                          I   N=          34
           1           1           1           1           1           1
           1           1           1           1           2           2
           2           2           2           2           3           3
           3           3           3           3           4           4
           4           4           4           4           5           5
           5           5           5           5
Primitive exponents                        R   N=          76
  6.09236406E+04  9.14788940E+03  2.08135059E+03  5.87559771E+02  1.91090440E+02
  6.57327301E+01  1.27258919E+02  1.48309130E+01  6.06533074E+00  1.04499437E+01
  1.72452280E+00  7.17721770E-01  9.14498300E-02  3.37066900E-02  7.73437510E+02
  1.82151497E+02  5.75472728E+01  2.06149889E+01  7.63485579E+00  3.87193280E+00
  1.49247241E+00  5.60612850E-01  1.34915000E-01  3.89681334E+01  1.08000671E+01
  3.61364580E+00  1.21299679E+00  3.65243930E-01  1.23840169E+03  1.86290050E+02
  4.22511764E+01  1.16765579E+01  3.59305065E+00  4.02451470E-01  1.30901830E-01
  9.46809706E+00  2.01035451E+00  5.47710050E-01  1.52686140E-01  8.00000000E-01
  1.23840169E+03  1.86290050E+02  4.22511764E+01  1.16765579E+01  3.59305065E+00
  4.02451470E-01  1.30901830E-01  9.46809706E+00  2.01035451E+00  5.47710050E-01
  1.52686140E-01  8.00000000E-01  2.26617678E+03  3.40870102E+02  7.73631352E+01
  2.14796449E+01  6.65894331E+00  8.09759760E-01  2.55307720E-01  1.77215043E+01
  3.86355054E+00  1.04809209E+00  2.76415440E-01  1.20000000E+00  2.26617678E+03
  3.40870102E+02  7.73631352E+01  2.14796449E+01  6.65894331E+00  8.09759760E-01
  2.55307720E-01  1.77215043E+01  3.86355054E+00  1.04809209E+00  2.76415440E-01
  1.20000000E+00
Contraction coefficients                   R   N=          76
  1.75522996E-03  1.34490233E-02  6.66788695E-02  2.31763486E-01  4.69455504E-01
  3.59682495E-01 -1.07234320E-01  6.29716164E-01  4.44723179E-01 -2.16942893E-01
  6.94578673E-01  4.32983090E-01  1.00000000E+00  1.00000000E+00  9.14404960E-03
  6.78875767E-02  2.61679789E-01  5.10880401E-01  3.32354756E-01  3.31938591E-01
  5.55366655E-01  2.31060343E-01  1.00000000E+00  3.33359335E-02  1.77662126E-01
  4.41281778E-01  5.70892009E-01  1.00000000E+00  5.51736180E-03  4.10888293E-02
  1.82253822E-01  4.68284597E-01  4.45758170E-01  1.00000000E+00  1.00000000E+00
  5.68883296E-02  3.12940593E-01  7.60650166E-01  1.00000000E+00  1.00000000E+00
  5.51736180E-03  4.10888293E-02  1.82253822E-01  4.68284597E-01  4.45758170E-01
  1.00000000E+00  1.00000000E+00  5.68883296E-02  3.12940593E-01  7.60650166E-01
  1.00000000E+00  1.00000000E+00 -5.38934940E-03 -4.02347222E-02 -1.80081842E-01
 -4.68288577E-01 -4.46926170E-01  1.00000000E+00  1.00000000E+00  6.26302441E-02
  3.33311388E-01  7.41486382E-01  1.00000000E+00  1.00000000E+00 -5.38934940E-03
 -4.02347222E-02 -1.80081842E-01 -4.68288577E-01 -4.46926170E-01  1.00000000E+00
  1.00000000E+00  6.26302441E-02  3.33311388E-01  7.41486382E-01  1.00000000E+00
  1.00000000E+00
Coordinates of each shell                  R   N=         102
  0.00000000E+00  2.39006223E-18  8.11351973E-03  0.00000000E+00  2.39006223E-18
  8.11351973E-03  0.00000000E+00  2.39006223E-18  8.11351973E-03  0.00000000E+00
  2.39006223E-18  8.11351973E-03  0.00000000E+00  2.39006223E-18  8.11351973E-03
  0.00000000E+00  2.39006223E-18  8.11351973E-03  0.00000000E+00  2.39006223E-18
  8.11351973E-03  0.00000000E+00  2.39006223E-18  8.11351973E-03  0.00000000E+00
  2.39006223E-18  8.11351973E-03  0.00000000E+00  2.39006223E-18  8.11351973E-03
 -3.99556874E-16  3.59414108E+00 -2.47478719E-03 -3.99556874E-16  3.59414108E+00
 -2.47478719E-03 -3.99556874E-16  3.59414108E+00 -2.47478719E-03 -3.99556874E-16
  3.59414108E+00 -2.47478719E-03 -3.99556874E-16  3.59414108E+00 -2.47478719E-03
 -3.99556874E-16  3.59414108E+00 -2.47478719E-03  9.42262789E-16 -3.59414108E+00
 -2.47478719E-03  9.42262789E-16 -3.59414108E+00 -2.47478719E-03  9.42262789E-16
 -3.59414108E+00 -2.47478719E-03  9.42262789E-16 -3.59414108E+00 -2.47478719E-03
  9.42262789E-16 -3.59414108E+00 -2.47478719E-03  9.42262789E-16 -3.59414108E+00
 -2.47478719E-03 -7.34029720E-16  6.59944299E+00 -1.13283792E-02 -7.34029720E-16
  6.59944299E+00 -1.13283792E-02 -7.34029720E-16  6.59944299E+00 -1.13283792E-02
 -7.34029720E-16  6.59944299E+00 -1.13283792E-02 -7.34029720E-16  6.59944299E+00
 -1.13283792E-02 -7.34029720E-16  6.59944299E+00 -1.13283792E-02  1.73128158E-15
 -6.59944299E+00 -1.13283792E-02  1.73128158E-15 -6.59944299E+00 -1.13283792E-02
  1.73128158E-15 -6.59944299E+00 -1.13283792E-02  1.73128158E-15 -6.59944299E+00
 -1.13283792E-02  1.73128158E-15 -6.59944299E+00 -1.13283792E-02  1.73128158E-15
 -6.59944299E+00 -1.13283792E-02
Num ILSW                                   I              100
ILSW                                       I   N=         100
           0           1           0           0           2           0
           0           0           0           0        1009          -1
           5           0           0           1           0           0
           0           0           0           0           0           0
           1           0           0           0           0           0
           0           0      100000           0          -1           0
           0           0           0           0           0           0
           0           0           0           1           0           0
           0 -2000000000           1           0           0           0
           0           1           4          52           0           0
           0           0           0           0           0           0
           0           0           0           5           0           1
           0           0           0           0           0           0
           0           0           0           0           0           0
           0           0           0           0           0           0
           0           0           0           0           0           0
           0           0           0           0
Num RLSW                                   I               52
RLSW                                       R   N=          52
  1.00000000E+00  1.00000000E+00  1.00000000E+00  1.00000000E+00  0.00000000E+00
  0.00000000E+00  0.00000000E+00  1.00000000E+00  0.00000000E+00  0.00000000E+00
  0.00000000E+00  0.00000000E+00  1.00000000E+00  0.00000000E+00  0.00000000E+00
  0.00000000E+00  0.00000000E+00  1.00000000E+00  0.00000000E+00  0.00000000E+00
  0.00000000E+00  0.00000000E+00  1.00000000E+00  0.00000000E+00  0.00000000E+00
  0.00000000E+00  0.00000000E+00  1.00000000E+00  0.00000000E+00  0.00000000E+00
  0.00000000E+00  0.00000000E+00  1.00000000E+00  0.00000000E+00  0.00000000E+00
  0.00000000E+00  0.00000000E+00  0.00000000E+00  1.00000000E+00  1.00000000E+00
  0.00000000E+00  1.00000000E+00  0.00000000E+00  0.00000000E+00  0.00000000E+00
  0.00000000E+00  0.00000000E+00  0.00000000E+00  0.00000000E+00  0.00000000E+00
  0.00000000E+00  0.00000000E+00
MxBond                                     I                2
NBond                                      I   N=           5
           2           2           2           1           1
IBond                                      I   N=          10
           2           3           1           4           1           5
           2           0           3           0
RBond                                      R   N=          10
  1.00000000E+00  1.00000000E+00  1.00000000E+00  1.00000000E+00  1.00000000E+00
  1.00000000E+00  1.00000000E+00  0.00000000E+00  1.00000000E+00  0.00000000E+00
Virial Ratio                               R      2.004046046941102E+00
SCF Energy                                 R     -1.488291423330088E+03
Total Energy                               R     -1.488291423330088E+03
RMS Density                                R      1.386847812992672E-12
Job Status                                 I                1
Nuclear derivative order                   I                0
External E-field                           R   N=          35
  0.00000000E+00  0.00000000E+00  0.00000000E+00  0.00000000E+00  0.00000000E+00
  0.00000000E+00  0.00000000E+00  0.00000000E+00  0.00000000E+00  0.00000000E+00
  0.00000000E+00  0.00000000E+00  0.00000000E+00  0.00000000E+00  0.00000000E+00
  0.00000000E+00  0.00000000E+00  0.00000000E+00  0.00000000E+00  0.00000000E+00
  0.00000000E+00  0.00000000E+00  0.00000000E+00  0.00000000E+00  0.00000000E+00
  0.00000000E+00  0.00000000E+00  0.00000000E+00  0.00000000E+00  0.00000000E+00
  0.00000000E+00  0.00000000E+00  0.00000000E+00  0.00000000E+00  0.00000000E+00
IOpCl                                      I                0
IROHF                                      I                0
Alpha Orbital Energies                     R   N=          86
 -2.55297875E+02 -3.01222317E+01 -2.60838726E+01 -2.60717808E+01 -2.60685644E+01
 -1.93387523E+01 -1.93387395E+01 -1.05486263E+01 -1.05485479E+01 -3.83727338E+00
 -2.66701556E+00 -2.64891821E+00 -2.64177323E+00 -1.30731325E+00 -1.30719683E+00
 -1.01152243E+00 -9.75892702E-01 -8.47164785E-01 -8.03657968E-01 -7.86447420E-01
 -7.84900537E-01 -7.51907968E-01 -7.48797626E-01 -7.38908576E-01 -7.30527948E-01
 -7.27975758E-01 -7.39435323E-01 -7.13567759E-01 -6.32961203E-01 -6.30938859E-01
 -5.96909297E-01 -5.95142408E-01 -5.05486853E-01 -4.38213499E-01 -3.67915364E-01
 -3.67156979E-01 -3.48079167E-01 -2.18897310E-01 -1.16643743E-01  2.06404756E-02
  2.11235484E-02  2.22167660E-02  2.56089474E-02  8.65788347E-02  8.75371385E-02
  1.66220493E-01  2.88468513E-01  3.11266112E-01  3.59939359E-01  3.61450945E-01
  4.08951933E-01  4.17740194E-01  5.02058365E-01  5.19276704E-01  5.21533961E-01
  5.83272741E-01  5.86268753E-01  5.88063974E-01  8.14207727E-01  1.01845994E+00
  1.09481184E+00  1.10158063E+00  1.10165858E+00  1.11045810E+00  1.11183015E+00
  1.11411149E+00  1.11424048E+00  1.28581423E+00  1.28721608E+00  1.33437504E+00
  1.64664985E+00  2.06596490E+00  2.06599103E+00  2.06599771E+00  2.06602641E+00
  2.16469320E+00  2.16827025E+00  2.17194535E+00  2.17546831E+00  2.54451050E+00
  2.61744354E+00  4.34106882E+00  4.39062606E+00  4.68689988E+00  5.44773847E+00
  5.48800693E+00
Alpha MO coefficients                      R   N=        7396
  9.95580760E-01  1.39528024E-02 -1.72365488E-02  7.73121279E-04 -2.80254379E-04
  1.95755858E-16  9.83019553E-17  1.10876290E-08 -1.21978338E-17 -8.00524694E-17
  3.79819926E-08 -4.56739139E-17  8.31633306E-17  4.29038449E-07  6.58218221E-03
  6.60484420E-03  6.58227748E-03  6.05669055E-07 -1.34039803E-15  7.27075297E-15
 -3.46601822E-04 -4.59238003E-04 -3.46638968E-04 -2.69405917E-07  4.68026930E-16
 -2.91515287E-15  4.51820013E-06 -4.61134337E-05 -3.11852150E-05  5.71476591E-10
 -3.40975732E-05  1.14971206E-07  5.61766146E-08 -1.91065668E-04  5.34823095E-07
 -3.76898540E-07  5.35679155E-05 -3.75227650E-07 -3.42404157E-08  1.22455163E-10
 -2.16469910E-07  4.51820013E-06 -4.61134337E-05 -3.11852150E-05 -5.71477162E-10
  3.40975732E-05  1.14971206E-07 -5.61766149E-08  1.91065668E-04  5.34823094E-07
 -3.76898539E-07  5.35679155E-05 -3.75227650E-07 -3.42404157E-08 -1.22455191E-10
  2.16469910E-07  6.21907840E-06 -2.22071351E-05  2.10794729E-04  4.86855391E-09
  1.05248277E-05 -3.24896375E-08 -1.70370972E-08 -7.02349888E-05  2.15582899E-07
 -2.67280368E-05 -2.74503402E-05 -2.67281021E-05  7.31976987E-10 -1.13915174E-12
 -1.02349636E-09  6.21907840E-06 -2.22071351E-05  2.10794729E-04 -4.86855477E-09
 -1.05248277E-05 -3.24896376E-08  1.70370967E-08  7.02349888E-05  2.15582899E-07
 -2.67280368E-05 -2.74503402E-05 -2.67281021E-05  7.31976960E-10  1.13915390E-12
  1.02349638E-09 -3.34808006E-01  1.04439240E+00  5.29143297E-02 -1.02845181E-03
  3.98452442E-04  8.33565173E-14  6.31323014E-14  2.96364875E-06  6.09757708E-15
  4.29578902E-15 -8.24746240E-08 -1.34963233E-15  2.47763478E-15  2.48236617E-06
 -1.60078373E-02 -1.55485794E-02 -1.59781112E-02  1.80190316E-04 -3.85925701E-13
  2.07354966E-12 -3.38964751E-04 -1.02218407E-03 -3.48513339E-04 -6.67825577E-05
  1.20726325E-13 -7.65661689E-13  9.95442075E-06 -6.29159636E-05  3.35305298E-04
  2.17651082E-07 -1.10191793E-04  4.89999027E-07  1.34544014E-05 -3.85487070E-04
  7.79530039E-07  1.00823980E-05  1.67847519E-04  1.03268152E-05 -7.99052870E-06
  2.85326963E-08 -7.14769711E-07  9.95442075E-06 -6.29159636E-05  3.35305298E-04
 -2.17651082E-07  1.10191793E-04  4.89999022E-07 -1.34544014E-05  3.85487070E-04
  7.79529727E-07  1.00823980E-05  1.67847519E-04  1.03268152E-05 -7.99052870E-06
 -2.85327025E-08  7.14769526E-07  1.05236019E-08  5.49374854E-06  7.03646858E-05
  1.13112490E-06 -3.54045684E-06 -1.64317996E-08 -4.06692237E-06 -1.44280723E-05
  1.59458341E-07  8.80167560E-06 -1.25212424E-05  8.79946871E-06  1.89964926E-07
 -6.20144263E-10  4.58484795E-08  1.05236018E-08  5.49374854E-06  7.03646858E-05
 -1.13112490E-06  3.54045684E-06 -1.64318190E-08  4.06692238E-06  1.44280723E-05
  1.59458439E-07  8.80167560E-06 -1.25212424E-05  8.79946871E-06  1.89964926E-07
  6.20144317E-10 -4.58484750E-08  3.50655870E-14 -1.11872136E-13 -1.29061415E-14
  2.97554641E-14  1.07091637E-14  3.75170058E-01  9.19178995E-01  4.28894762E-09
  7.32302435E-03  1.87496419E-02  8.37183165E-11 -1.37899696E-03 -2.01772835E-02
 -1.57707444E-11  6.44302041E-15  8.11455268E-15 -5.84419703E-15  8.38615203E-15
 -1.71302884E-07 -4.46534090E-06 -1.71253556E-14 -2.44299200E-14 -5.97158085E-15
 -2.59062261E-15  5.56858508E-07  2.19378305E-05  7.91471577E-05 -1.09283101E-03
  1.05221850E-02 -4.78002454E-05  1.47512724E-04 -4.01431210E-06  3.39034901E-04
 -9.07609402E-03  4.14531259E-05  2.31971613E-05 -1.36373104E-04  2.31916947E-05
 -3.18410430E-05  7.96801225E-08  7.28133373E-07 -7.91471577E-05  1.09283101E-03
 -1.05221850E-02 -4.78002454E-05  1.47512724E-04  4.01431100E-06  3.39034901E-04
 -9.07609402E-03 -4.14531181E-05 -2.31971613E-05  1.36373104E-04 -2.31916947E-05
  3.18410430E-05  7.96801225E-08  7.28134102E-07  2.26166891E-05 -3.38844625E-04
  2.94918883E-03  2.56386907E-05  1.43799008E-05  1.10734189E-06 -1.03517825E-04
 -1.01035392E-03 -1.65013228E-06 -1.57337693E-04 -6.16916095E-05 -1.57343441E-04
  1.42901396E-05 -4.18918072E-08  3.67838625E-07 -2.26166891E-05  3.38844625E-04
 -2.94918883E-03  2.56386907E-05  1.43799008E-05 -1.10734130E-06 -1.03517825E-04
 -1.01035392E-03  1.65012992E-06  1.57337693E-04  6.16916094E-05  1.57343441E-04
 -1.42901396E-05 -4.18918073E-08  3.67838299E-07  9.11076700E-07 -3.22372233E-06
 -2.29868483E-06  7.66548991E-06  2.92058011E-06 -1.14202023E-08  2.75825618E-11
  9.93052458E-01 -2.21419435E-10  5.66262671E-13  1.92537739E-02  4.16099918E-11
 -9.39758319E-13 -3.61854158E-03  3.55406551E-07  2.99129963E-07 -1.20435242E-08
 -6.07091912E-08  8.22603908E-15  2.38517739E-15 -3.91705775E-06 -4.20649305E-06
 -1.52459777E-06  2.31561248E-08 -1.79136182E-14 -9.50647590E-16 -3.75255760E-07
  1.72988491E-06 -1.04913303E-05 -5.71975269E-11 -4.31991136E-07 -1.25360344E-04
 -4.94789835E-09 -3.02771903E-06  8.89049145E-04 -8.49253631E-07  2.39242159E-07
 -4.85591693E-07  2.86925086E-09  2.50903677E-09 -8.32118599E-05 -3.75255763E-07
  1.72988501E-06 -1.04913313E-05  6.00809992E-11  4.31991154E-07 -1.25360344E-04
  4.92745204E-09  3.02771804E-06  8.89049145E-04 -8.49253620E-07  2.39242173E-07
 -4.85591682E-07  2.86733738E-09 -2.50904149E-09  8.32118599E-05  2.24699520E-07
 -1.19394212E-06  9.01786126E-06 -4.23437259E-10  8.98186843E-07  6.72220148E-05
  1.55376952E-09 -4.73377884E-06 -2.71442129E-04 -1.10009475E-06 -7.53614694E-07
 -1.29077807E-06 -8.45055789E-11  6.61522821E-12  3.74890804E-05  2.24699517E-07
 -1.19394208E-06  9.01786087E-06  4.21891483E-10 -8.98186830E-07  6.72220148E-05
 -1.54752628E-09  4.73377870E-06 -2.71442129E-04 -1.10009472E-06 -7.53614678E-07
 -1.29077804E-06 -8.36433425E-11 -6.61269700E-12 -3.74890804E-05  2.82124851E-14
 -9.21109252E-14 -1.78925283E-14  5.48688780E-14  3.98885484E-14  9.19461098E-01
 -3.75101345E-01  1.05843184E-08  1.77948588E-02 -7.58554562E-03  2.04844834E-10
 -3.34249466E-03  8.13637027E-03 -3.84783286E-11  1.08826884E-14 -3.77489492E-15
 -5.68230414E-15  3.05732188E-15 -2.57351562E-07  1.73384663E-06 -3.98180567E-14
 -4.18902613E-14 -1.17422269E-14 -6.12066451E-16  1.29432774E-06 -8.81660776E-06
 -3.17760854E-05  4.39733276E-04 -4.24249548E-03 -1.15783368E-04 -5.97191754E-05
  1.61923336E-06  8.21079705E-04  3.65896300E-03 -1.67183660E-05 -9.25629095E-06
  5.60499776E-05 -9.26092799E-06 -7.67821901E-05  1.93252281E-07 -2.93773527E-07
  3.17760854E-05 -4.39733276E-04  4.24249548E-03 -1.15783368E-04 -5.97191754E-05
 -1.61923603E-06  8.21079705E-04  3.65896300E-03  1.67183849E-05  9.25629093E-06
 -5.60499776E-05  9.26092798E-06  7.67821901E-05  1.93252281E-07 -2.93771759E-07
 -9.10098940E-06  1.36659931E-04 -1.18881069E-03  6.20837756E-05 -5.76945392E-06
 -4.47064917E-07 -2.50702824E-04  4.07350900E-04  6.67277863E-07  6.34221146E-05
  2.47076539E-05  6.34244463E-05  3.46274159E-05 -1.01694759E-07 -1.47916618E-07
  9.10098940E-06 -1.36659931E-04  1.18881069E-03  6.20837756E-05 -5.76945394E-06
  4.47066346E-07 -2.50702824E-04  4.07350900E-04 -6.67283635E-07 -6.34221146E-05
 -2.47076539E-05 -6.34244464E-05 -3.46274159E-05 -1.01694759E-07 -1.47917415E-07
  2.13941006E-13  1.30830737E-11  1.51438568E-10  5.48887734E-10 -1.23620457E-10
 -1.87232069E-08 -3.33648357E-05  3.57480975E-14  3.38854535E-08  1.33883202E-04
 -1.02349700E-13 -3.46211681E-07 -1.36238838E-02 -1.92187758E-12 -3.48047200E-11
 -7.22816233E-11 -3.48057515E-11 -7.03919781E-15 -6.30164967E-10 -3.01978577E-06
  6.50338939E-11  3.15529799E-10  6.50373425E-11  2.47310475E-14  1.16867267E-09
  1.67061800E-05  1.45835009E-05 -9.01188048E-04  5.03603419E-03 -4.07821411E-08
  2.52544835E-04 -3.07670216E-06  5.45520940E-07 -1.08868662E-02  4.15573232E-05
 -1.39848890E-04 -1.77827501E-04 -1.39746764E-04  1.90034476E-07 -2.59083264E-09
  3.24570853E-07 -1.45835092E-05  9.01188191E-04 -5.03603390E-03 -4.07821459E-08
  2.52544825E-04  3.07670195E-06  5.45521078E-07 -1.08868678E-02 -4.15573272E-05
  1.39848893E-04  1.77827456E-04  1.39746768E-04 -1.90034538E-07 -2.59083034E-09
  3.24570645E-07  6.96551185E-01 -3.66812485E-02  1.20847504E-02  3.27734762E-06
  1.01745159E-03 -2.34593432E-06 -1.41238541E-06 -3.46696412E-03  7.28308421E-06
  5.57032143E-03  5.83526926E-03  5.55858216E-03  1.86235727E-06  2.23390141E-07
 -5.99157493E-07 -6.96551403E-01  3.66812599E-02 -1.20847535E-02  3.27734865E-06
  1.01745189E-03  2.34593537E-06 -1.41238585E-06 -3.46696495E-03 -7.28308693E-06
 -5.57032323E-03 -5.83527112E-03 -5.55858396E-03 -1.86235785E-06  2.23389862E-07
 -5.99157802E-07 -1.36474279E-06 -8.34571516E-05 -9.66029994E-04 -3.50136218E-03
  7.88576198E-04 -2.92181348E-15 -5.23038857E-12 -2.21919121E-07  5.30681432E-15
  2.09880534E-11  6.56983159E-07 -5.41656762E-14 -2.13572925E-09  1.22332914E-05
  2.22021915E-04  4.61086349E-04  2.22024991E-04  4.51825157E-08 -2.61182766E-16
 -4.72468895E-13 -4.14851739E-04 -2.01277154E-03 -4.14874437E-04 -1.57386225E-07
  3.86131808E-16  2.61708972E-12  2.63215136E-05 -4.57790804E-04 -9.42686303E-04
 -1.52176442E-08 -3.09224927E-05  6.65459903E-07  4.40359870E-07 -5.20520257E-03
  1.28471513E-05 -1.09872451E-05  1.42015866E-04 -1.08792919E-05  1.97303389E-07
 -2.63655237E-09 -6.49266594E-07  2.63215091E-05 -4.57790522E-04 -9.42687882E-04
  1.52176314E-08  3.09225719E-05  6.65460868E-07 -4.40359700E-07  5.20519916E-03
  1.28471383E-05 -1.09872013E-05  1.42015922E-04 -1.08792481E-05  1.97303329E-07
  2.63654840E-09  6.49266701E-07  6.96526635E-01 -3.63881288E-02  9.79624520E-03
  3.26839832E-06  9.64732736E-04 -3.10057720E-06 -1.37949196E-06 -2.64196997E-03
  8.57632356E-06  5.74179074E-03  5.91597431E-03  5.73005784E-03  1.85775383E-06
  2.23316895E-07 -8.44760481E-07  6.96526416E-01 -3.63881173E-02  9.79624141E-03
 -3.26839730E-06 -9.64732417E-04 -3.10057654E-06  1.37949152E-06  2.64196888E-03
  8.57632131E-06  5.74178899E-03  5.91597248E-03  5.73005610E-03  1.85775324E-06
 -2.23316475E-07  8.44760338E-07  7.93600676E-05 -2.83097222E-04 -3.35123731E-03
  5.94104917E-03  2.57870835E-03 -3.29411195E-15 -3.54881858E-12 -5.03587913E-07
  7.08562842E-15  1.03179828E-11  1.18334531E-06  5.57339182E-15 -4.39366356E-10
 -1.94570389E-05  1.75146638E-03  2.61865111E-03  1.75151055E-03  7.08808506E-08
 -4.86084461E-16 -4.73463710E-14  1.12076187E-03 -3.30212031E-03  1.12060468E-03
 -6.31965896E-07  1.52494472E-15  2.42542096E-13  6.97890445E-01  3.60828171E-02
 -1.34404760E-02  4.17257431E-07 -5.34153456E-04 -1.49322073E-07  4.36194996E-07
  4.36093881E-03 -3.23853134E-06 -3.45100199E-03 -1.46009623E-03 -3.44671071E-03
 -1.34162442E-06 -6.47035550E-08 -9.55700602E-06  6.97890469E-01  3.60828184E-02
 -1.34404768E-02 -4.17257440E-07  5.34153459E-04 -1.49321956E-07 -4.36195014E-07
 -4.36093945E-03 -3.23853393E-06 -3.45100210E-03 -1.46009631E-03 -3.44671082E-03
 -1.34162447E-06  6.47034312E-08  9.55700604E-06  4.66675645E-05  1.05043548E-03
 -2.70942993E-03 -4.59572518E-08  3.40452161E-05  6.07580236E-07  9.12421039E-08
  2.88393866E-03 -1.13309067E-05  4.80001551E-04 -1.27456149E-03  4.79986792E-04
 -8.09811097E-08  9.29264470E-11  6.21423135E-06  4.66675632E-05  1.05043555E-03
 -2.70943027E-03  4.59572534E-08 -3.40452075E-05  6.07580209E-07 -9.12421067E-08
 -2.88393885E-03 -1.13309070E-05  4.80001586E-04 -1.27456152E-03  4.79986827E-04
 -8.09811125E-08 -9.29265326E-11 -6.21423153E-06  1.33444791E-12 -4.76050977E-12
 -5.63555534E-11  9.98980893E-11  4.33558691E-11  1.96917274E-07  2.11066109E-04
 -6.93598572E-15 -4.24950111E-07 -6.13660932E-04  1.41411301E-14 -3.04291900E-07
  2.61326431E-02 -3.31413453E-13  2.94522038E-11  4.40346485E-11  2.94537326E-11
  1.01931650E-15  3.04819393E-10  2.87321453E-06  1.88443980E-11 -5.55260467E-11
  1.88418934E-11 -1.06282369E-14  1.77449376E-09 -1.48696863E-05  6.97960831E-01
  3.62968637E-02 -2.29092058E-02  3.97398419E-07 -7.70893010E-05  3.46459799E-06
  4.66201890E-07  1.89844502E-02 -7.68499724E-05 -3.24124861E-03 -2.26295385E-03
 -3.23699553E-03 -1.34958976E-06 -6.47161030E-08 -1.47160599E-06 -6.97960808E-01
 -3.62968624E-02  2.29092053E-02  3.97398401E-07 -7.70892830E-05 -3.46459799E-06
  4.66201878E-07  1.89844500E-02  7.68499723E-05  3.24124850E-03  2.26295380E-03
  3.23699542E-03  1.34958971E-06 -6.47159750E-08 -1.47160564E-06 -3.78959744E-05
  1.99768005E-03 -1.01491242E-02 -4.87826138E-08 -2.54533575E-04 -8.12328083E-07
  9.23119679E-08  5.75041669E-03 -1.05012342E-05  1.02820321E-03 -8.07639003E-04
  1.02820620E-03 -8.46618894E-08 -1.69654704E-10  5.45357994E-06  3.78959760E-05
 -1.99768002E-03  1.01491241E-02 -4.87826121E-08 -2.54533576E-04  8.12328102E-07
  9.23119646E-08  5.75041660E-03  1.05012339E-05 -1.02820319E-03  8.07638960E-04
 -1.02820619E-03  8.46618868E-08 -1.69654229E-10  5.45357973E-06  1.24812644E-01
 -4.68069467E-01  1.09046575E+00 -4.76664970E-03  1.70205694E-03 -1.15609018E-13
 -1.09156445E-13 -1.87055567E-06  3.03951450E-13  2.87890033E-13  5.27412248E-06
 -1.48278216E-14  1.63120059E-13  2.06488253E-06 -4.16523106E-03  4.17382296E-05
 -3.59124241E-03  3.98322509E-03 -7.59563947E-12  4.55808419E-11  6.26969741E-03
  6.13202021E-03  6.26815050E-03  3.91003859E-06  6.91776526E-14  5.04177110E-14
 -6.27995193E-04  4.81913405E-04  7.97309815E-04  4.60822482E-06 -1.38427044E-03
  4.20645261E-06  1.85102999E-05 -2.45140552E-04 -1.38969105E-07 -1.08163827E-04
  1.22884721E-03 -1.06981555E-04 -1.63384420E-05  3.89138031E-08 -4.38894193E-06
 -6.27995193E-04  4.81913405E-04  7.97309815E-04 -4.60822482E-06  1.38427044E-03
  4.20645251E-06 -1.85102999E-05  2.45140552E-04 -1.38969510E-07 -1.08163827E-04
  1.22884721E-03 -1.06981555E-04 -1.63384420E-05 -3.89138382E-08  4.38894156E-06
 -2.52543934E-06  1.51714168E-04 -4.84657287E-04  1.03354523E-06 -2.63580718E-05
  2.24965657E-08 -4.71848100E-06  2.44318902E-04 -4.66687125E-07  7.47542742E-05
 -4.10797535E-05  7.47473603E-05  7.58038280E-08 -1.63830158E-10  3.72540840E-07
 -2.52543933E-06  1.51714168E-04 -4.84657286E-04 -1.03354524E-06  2.63580718E-05
  2.24965168E-08  4.71848100E-06 -2.44318902E-04 -4.66687037E-07  7.47542742E-05
 -4.10797535E-05  7.47473602E-05  7.58038278E-08  1.63830338E-10 -3.72540839E-07