Jobname.Temp
FREQ      R                             def2-TZVP           
Number of atoms                            I                5
Charge                                     I               -2
Multiplicity                               I                1
Number of electrons                        I               60
Number of alpha electrons                  I               30
Number of beta electrons                   I               30
Atomic numbers                             I   N=           5
          26           8           8           8           8
Current cartesian coordinates              R   N=          15
  0.00000000E+00  0.00000000E+00  0.00000000E+00  1.78477954E+00  1.78477954E+00
  1.78477954E+00 -1.78477954E+00 -1.78477954E+00  1.78477954E+00 -1.78477954E+00
  1.78477954E+00 -1.78477954E+00  1.78477954E+00 -1.78477954E+00 -1.78477954E+00
Nuclear charges                            R   N=           5
  2.60000000E+01  8.00000000E+00  8.00000000E+00  8.00000000E+00  8.00000000E+00
Number of basis functions                  I              169
Number of contracted shells                I               59
Number of primitive shells                 I              116
Highest angular momentum                   I                3
Largest degree of contraction              I                8
Shell types                                I   N=          59
           0           0           0           0           0           0
           1           1           1          -2          -2          -2
           1          -2          -3           0           0           0
           0           0           1           1           1          -2
          -2          -3           0           0           0           0
           0           1           1           1          -2          -2
          -3           0           0           0           0           0
           1           1           1          -2          -2          -3
           0           0           0           0           0           1
           1           1          -2          -2          -3
Number of primitives per shell             I   N=          59
           8           4           2           1           1           1
           6           3           1           4           1           1
           1           1           1           6           2           1
           1           1           4           1           1           1
           1           1           6           2           1           1
           1           4           1           1           1           1
           1           6           2           1           1           1
           4           1           1           1           1           1
           6           2           1           1           1           4
           1           1           1           1           1
Shell to atom map                          I   N=          59
           1           1           1           1           1           1
           1           1           1           1           1           1
           1           1           1           2           2           2
           2           2           2           2           2           2
           2           2           3           3           3           3
           3           3           3           3           3           3
           3           4           4           4           4           4
           4           4           4           4           4           4
           5           5           5           5           5           5
           5           5           5           5           5
Primitive exponents                        R   N=         116
  3.00784846E+05  4.50889706E+04  1.02625163E+04  2.90528973E+03  9.46114871E+02
  3.39878329E+02  1.31944256E+02  5.21114941E+01  3.29488393E+02  1.01923327E+02
  1.62404627E+01  6.88406758E+00  1.04706938E+01  1.73600396E+00  7.25772890E-01
  1.15955282E-01  4.19682277E-02  1.58539600E+03  3.75380065E+02  1.20318165E+02
  4.47887490E+01  1.78292786E+01  7.22471538E+00  2.81432198E+01  3.87432414E+00
  1.54107523E+00  5.82856153E-01  6.19966750E+01  1.78737326E+01  6.27447829E+00
  2.35523372E+00  8.54322399E-01  2.78692544E-01  1.34915000E-01  9.10000000E-02
  1.59800000E+00  2.70323826E+04  4.05238714E+03  9.22327227E+02  2.61240710E+02
  8.53546414E+01  3.10350352E+01  1.22608607E+01  4.99870760E+00  1.17031082E+00
  4.64747410E-01  1.85045364E-01  6.32749548E+01  1.46270494E+01  4.45012235E+00
  1.52757996E+00  5.29351179E-01  1.74784213E-01  2.31400000E+00  6.45000000E-01
  1.42800000E+00  2.70323826E+04  4.05238714E+03  9.22327227E+02  2.61240710E+02
  8.53546414E+01  3.10350352E+01  1.22608607E+01  4.99870760E+00  1.17031082E+00
  4.64747410E-01  1.85045364E-01  6.32749548E+01  1.46270494E+01  4.45012235E+00
  1.52757996E+00  5.29351179E-01  1.74784213E-01  2.31400000E+00  6.45000000E-01
  1.42800000E+00  2.70323826E+04  4.05238714E+03  9.22327227E+02  2.61240710E+02
  8.53546414E+01  3.10350352E+01  1.22608607E+01  4.99870760E+00  1.17031082E+00
  4.64747410E-01  1.85045364E-01  6.32749548E+01  1.46270494E+01  4.45012235E+00
  1.52757996E+00  5.29351179E-01  1.74784213E-01  2.31400000E+00  6.45000000E-01
  1.42800000E+00  2.70323826E+04  4.05238714E+03  9.22327227E+02  2.61240710E+02
  8.53546414E+01  3.10350352E+01  1.22608607E+01  4.99870760E+00  1.17031082E+00
  4.64747410E-01  1.85045364E-01  6.32749548E+01  1.46270494E+01  4.45012235E+00
  1.52757996E+00  5.29351179E-01  1.74784213E-01  2.31400000E+00  6.45000000E-01
  1.42800000E+00
Contraction coefficients                   R   N=         116
  2.41033050E-04  1.86873825E-03  9.71551346E-03  3.94799670E-02  1.28421628E-01
  3.04578608E-01  4.34655538E-01  2.27423824E-01 -2.47166458E-02 -1.16695998E-01
  5.52297794E-01  5.35397520E-01 -3.77458698E-01  1.17226229E+00  1.00000000E+00
  1.00000000E+00  1.00000000E+00  2.73956418E-03  2.21674966E-02  1.03648403E-01
  2.97032307E-01  4.77733744E-01  2.78717499E-01 -2.02687424E-02  3.86033815E-01
  6.75382473E-01  1.00000000E+00  1.94973340E-02  1.19228681E-01  3.76252748E-01
  6.49978431E-01  1.00000000E+00  1.00000000E+00  1.00000000E+00  1.00000000E+00
  1.00000000E+00  5.72273352E-04  4.43532335E-03  2.30201077E-02  9.28224907E-02
  2.93785000E-01  6.74016045E-01  6.38399370E-01  3.95345871E-01  1.00000000E+00
  1.00000000E+00  1.00000000E+00  1.20183322E-02  8.30054218E-02  3.19917439E-01
  7.07155429E-01  1.00000000E+00  1.00000000E+00  1.00000000E+00  1.00000000E+00
  1.00000000E+00  5.72273352E-04  4.43532335E-03  2.30201077E-02  9.28224907E-02
  2.93785000E-01  6.74016045E-01  6.38399370E-01  3.95345871E-01  1.00000000E+00
  1.00000000E+00  1.00000000E+00  1.20183322E-02  8.30054218E-02  3.19917439E-01
  7.07155429E-01  1.00000000E+00  1.00000000E+00  1.00000000E+00  1.00000000E+00
  1.00000000E+00  5.72273352E-04  4.43532335E-03  2.30201077E-02  9.28224907E-02
  2.93785000E-01  6.74016045E-01  6.38399370E-01  3.95345871E-01  1.00000000E+00
  1.00000000E+00  1.00000000E+00  1.20183322E-02  8.30054218E-02  3.19917439E-01
  7.07155429E-01  1.00000000E+00  1.00000000E+00  1.00000000E+00  1.00000000E+00
  1.00000000E+00  5.72273352E-04  4.43532335E-03  2.30201077E-02  9.28224907E-02
  2.93785000E-01  6.74016045E-01  6.38399370E-01  3.95345871E-01  1.00000000E+00
  1.00000000E+00  1.00000000E+00  1.20183322E-02  8.30054218E-02  3.19917439E-01
  7.07155429E-01  1.00000000E+00  1.00000000E+00  1.00000000E+00  1.00000000E+00
  1.00000000E+00
Coordinates of each shell                  R   N=         177
  0.00000000E+00  0.00000000E+00  0.00000000E+00  0.00000000E+00  0.00000000E+00
  0.00000000E+00  0.00000000E+00  0.00000000E+00  0.00000000E+00  0.00000000E+00
  0.00000000E+00  0.00000000E+00  0.00000000E+00  0.00000000E+00  0.00000000E+00
  0.00000000E+00  0.00000000E+00  0.00000000E+00  0.00000000E+00  0.00000000E+00
  0.00000000E+00  0.00000000E+00  0.00000000E+00  0.00000000E+00  0.00000000E+00
  0.00000000E+00  0.00000000E+00  0.00000000E+00  0.00000000E+00  0.00000000E+00
  0.00000000E+00  0.00000000E+00  0.00000000E+00  0.00000000E+00  0.00000000E+00
  0.00000000E+00  0.00000000E+00  0.00000000E+00  0.00000000E+00  0.00000000E+00
  0.00000000E+00  0.00000000E+00  0.00000000E+00  0.00000000E+00  0.00000000E+00
  1.78477954E+00  1.78477954E+00  1.78477954E+00  1.78477954E+00  1.78477954E+00
  1.78477954E+00  1.78477954E+00  1.78477954E+00  1.78477954E+00  1.78477954E+00
  1.78477954E+00  1.78477954E+00  1.78477954E+00  1.78477954E+00  1.78477954E+00
  1.78477954E+00  1.78477954E+00  1.78477954E+00  1.78477954E+00  1.78477954E+00
  1.78477954E+00  1.78477954E+00  1.78477954E+00  1.78477954E+00  1.78477954E+00
  1.78477954E+00  1.78477954E+00  1.78477954E+00  1.78477954E+00  1.78477954E+00
  1.78477954E+00  1.78477954E+00  1.78477954E+00 -1.78477954E+00 -1.78477954E+00
  1.78477954E+00 -1.78477954E+00 -1.78477954E+00  1.78477954E+00 -1.78477954E+00
 -1.78477954E+00  1.78477954E+00 -1.78477954E+00 -1.78477954E+00  1.78477954E+00
 -1.78477954E+00 -1.78477954E+00  1.78477954E+00 -1.78477954E+00 -1.78477954E+00
  1.78477954E+00 -1.78477954E+00 -1.78477954E+00  1.78477954E+00 -1.78477954E+00
 -1.78477954E+00  1.78477954E+00 -1.78477954E+00 -1.78477954E+00  1.78477954E+00
 -1.78477954E+00 -1.78477954E+00  1.78477954E+00 -1.78477954E+00 -1.78477954E+00
  1.78477954E+00 -1.78477954E+00  1.78477954E+00 -1.78477954E+00 -1.78477954E+00
  1.78477954E+00 -1.78477954E+00 -1.78477954E+00  1.78477954E+00 -1.78477954E+00
 -1.78477954E+00  1.78477954E+00 -1.78477954E+00 -1.78477954E+00  1.78477954E+00
 -1.78477954E+00 -1.78477954E+00  1.78477954E+00 -1.78477954E+00 -1.78477954E+00
  1.78477954E+00 -1.78477954E+00 -1.78477954E+00  1.78477954E+00 -1.78477954E+00
 -1.78477954E+00  1.78477954E+00 -1.78477954E+00 -1.78477954E+00  1.78477954E+00
 -1.78477954E+00 -1.78477954E+00  1.78477954E+00 -1.78477954E+00  1.78477954E+00
 -1.78477954E+00 -1.78477954E+00  1.78477954E+00 -1.78477954E+00 -1.78477954E+00
  1.78477954E+00 -1.78477954E+00 -1.78477954E+00  1.78477954E+00 -1.78477954E+00
 -1.78477954E+00  1.78477954E+00 -1.78477954E+00 -1.78477954E+00  1.78477954E+00
 -1.78477954E+00 -1.78477954E+00  1.78477954E+00 -1.78477954E+00 -1.78477954E+00
  1.78477954E+00 -1.78477954E+00 -1.78477954E+00  1.78477954E+00 -1.78477954E+00
 -1.78477954E+00  1.78477954E+00 -1.78477954E+00 -1.78477954E+00  1.78477954E+00
 -1.78477954E+00 -1.78477954E+00
Overlap Matrix                             R   N=       14365
  1.00000000E+00  2.98913536E-01  1.00000000E+00 -1.10278541E-02  3.50140258E-01
  1.00000000E+00  6.06176790E-02  3.74552549E-01  8.90417007E-01  1.00000000E+00
  1.54812835E-02  1.04793269E-01  3.59520959E-01  5.72276165E-01  1.00000000E+00
  7.23336698E-03  4.95371700E-02  1.79221218E-01  3.06558824E-01  8.30392059E-01
  1.00000000E+00  0.00000000E+00  0.00000000E+00  0.00000000E+00  0.00000000E+00
  0.00000000E+00  0.00000000E+00  1.00000000E+00  0.00000000E+00  0.00000000E+00
  0.00000000E+00  0.00000000E+00  0.00000000E+00  0.00000000E+00  0.00000000E+00
  1.00000000E+00  0.00000000E+00  0.00000000E+00  0.00000000E+00  0.00000000E+00
  0.00000000E+00  0.00000000E+00  0.00000000E+00  0.00000000E+00  1.00000000E+00
  0.00000000E+00  0.00000000E+00  0.00000000E+00  0.00000000E+00  0.00000000E+00
  0.00000000E+00  3.80577421E-01  0.00000000E+00  0.00000000E+00  1.00000000E+00
  0.00000000E+00  0.00000000E+00  0.00000000E+00  0.00000000E+00  0.00000000E+00
  0.00000000E+00  0.00000000E+00  3.80577421E-01  0.00000000E+00  0.00000000E+00
  1.00000000E+00  0.00000000E+00  0.00000000E+00  0.00000000E+00  0.00000000E+00
  0.00000000E+00  0.00000000E+00  0.00000000E+00  0.00000000E+00  3.80577421E-01
  0.00000000E+00  0.00000000E+00  1.00000000E+00  0.00000000E+00  0.00000000E+00
  0.00000000E+00  0.00000000E+00  0.00000000E+00  0.00000000E+00  9.84309328E-02
  0.00000000E+00  0.00000000E+00  6.51436982E-01  0.00000000E+00  0.00000000E+00
  1.00000000E+00  0.00000000E+00  0.00000000E+00  0.00000000E+00  0.00000000E+00
  0.00000000E+00  0.00000000E+00  0.00000000E+00  9.84309328E-02  0.00000000E+00
  0.00000000E+00  6.51436982E-01  0.00000000E+00  0.00000000E+00  1.00000000E+00
  0.00000000E+00  0.00000000E+00  0.00000000E+00  0.00000000E+00  0.00000000E+00
  0.00000000E+00  0.00000000E+00  0.00000000E+00  9.84309328E-02  0.00000000E+00
  0.00000000E+00  6.51436982E-01  0.00000000E+00  0.00000000E+00  1.00000000E+00
  0.00000000E+00  0.00000000E+00  0.00000000E+00  0.00000000E+00  0.00000000E+00
  0.00000000E+00  0.00000000E+00  0.00000000E+00  0.00000000E+00  0.00000000E+00
  0.00000000E+00  0.00000000E+00  0.00000000E+00  0.00000000E+00  0.00000000E+00
  1.00000000E+00  0.00000000E+00  0.00000000E+00  0.00000000E+00  0.00000000E+00
  0.00000000E+00  0.00000000E+00  0.00000000E+00  0.00000000E+00  0.00000000E+00
  0.00000000E+00  0.00000000E+00  0.00000000E+00  0.00000000E+00  0.00000000E+00
  0.00000000E+00  0.00000000E+00  1.00000000E+00  0.00000000E+00  0.00000000E+00
  0.00000000E+00  0.00000000E+00  0.00000000E+00  0.00000000E+00  0.00000000E+00
  0.00000000E+00  0.00000000E+00  0.00000000E+00  0.00000000E+00  0.00000000E+00
  0.00000000E+00  0.00000000E+00  0.00000000E+00  0.00000000E+00  0.00000000E+00
  1.00000000E+00  0.00000000E+00  0.00000000E+00  0.00000000E+00  0.00000000E+00
  0.00000000E+00  0.00000000E+00  0.00000000E+00  0.00000000E+00  0.00000000E+00
  0.00000000E+00  0.00000000E+00  0.00000000E+00  0.00000000E+00  0.00000000E+00
  0.00000000E+00  0.00000000E+00  0.00000000E+00  0.00000000E+00  1.00000000E+00
  0.00000000E+00  0.00000000E+00  0.00000000E+00  0.00000000E+00  0.00000000E+00
  0.00000000E+00  0.00000000E+00  0.00000000E+00  0.00000000E+00  0.00000000E+00
  0.00000000E+00  0.00000000E+00  0.00000000E+00  0.00000000E+00  0.00000000E+00
  0.00000000E+00  0.00000000E+00  0.00000000E+00  0.00000000E+00  1.00000000E+00
  0.00000000E+00  0.00000000E+00  0.00000000E+00  0.00000000E+00  0.00000000E+00
  0.00000000E+00  0.00000000E+00  0.00000000E+00  0.00000000E+00  0.00000000E+00
  0.00000000E+00  0.00000000E+00  0.00000000E+00  0.00000000E+00  0.00000000E+00
  5.10849415E-01  0.00000000E+00  0.00000000E+00  0.00000000E+00  0.00000000E+00
  1.00000000E+00  0.00000000E+00  0.00000000E+00  0.00000000E+00  0.00000000E+00
  0.00000000E+00  0.00000000E+00  0.00000000E+00  0.00000000E+00  0.00000000E+00
  0.00000000E+00  0.00000000E+00  0.00000000E+00  0.00000000E+00  0.00000000E+00
  0.00000000E+00  0.00000000E+00  5.10849415E-01  0.00000000E+00  0.00000000E+00
  0.00000000E+00  0.00000000E+00  1.00000000E+00  0.00000000E+00  0.00000000E+00
  0.00000000E+00  0.00000000E+00  0.00000000E+00  0.00000000E+00  0.00000000E+00
  0.00000000E+00  0.00000000E+00  0.00000000E+00  0.00000000E+00  0.00000000E+00
  0.00000000E+00  0.00000000E+00  0.00000000E+00  0.00000000E+00  0.00000000E+00
  5.10849415E-01  0.00000000E+00  0.00000000E+00  0.00000000E+00  0.00000000E+00
  1.00000000E+00  0.00000000E+00  0.00000000E+00  0.00000000E+00  0.00000000E+00
  0.00000000E+00  0.00000000E+00  0.00000000E+00  0.00000000E+00  0.00000000E+00
  0.00000000E+00  0.00000000E+00  0.00000000E+00  0.00000000E+00  0.00000000E+00
  0.00000000E+00  0.00000000E+00  0.00000000E+00  0.00000000E+00  5.10849415E-01
  0.00000000E+00  0.00000000E+00  0.00000000E+00  0.00000000E+00  1.00000000E+00
  0.00000000E+00  0.00000000E+00  0.00000000E+00  0.00000000E+00  0.00000000E+00
  0.00000000E+00  0.00000000E+00  0.00000000E+00  0.00000000E+00  0.00000000E+00
  0.00000000E+00  0.00000000E+00  0.00000000E+00  0.00000000E+00  0.00000000E+00
  0.00000000E+00  0.00000000E+00  0.00000000E+00  0.00000000E+00  5.10849415E-01
  0.00000000E+00  0.00000000E+00  0.00000000E+00  0.00000000E+00  1.00000000E+00
  0.00000000E+00  0.00000000E+00  0.00000000E+00  0.00000000E+00  0.00000000E+00
  0.00000000E+00  0.00000000E+00  0.00000000E+00  0.00000000E+00  0.00000000E+00
  0.00000000E+00  0.00000000E+00  0.00000000E+00  0.00000000E+00  0.00000000E+00
  1.35299857E-01  0.00000000E+00  0.00000000E+00  0.00000000E+00  0.00000000E+00
  5.93045143E-01  0.00000000E+00  0.00000000E+00  0.00000000E+00  0.00000000E+00
  1.00000000E+00  0.00000000E+00  0.00000000E+00  0.00000000E+00  0.00000000E+00
  0.00000000E+00  0.00000000E+00  0.00000000E+00  0.00000000E+00  0.00000000E+00
  0.00000000E+00  0.00000000E+00  0.00000000E+00  0.00000000E+00  0.00000000E+00
  0.00000000E+00  0.00000000E+00  1.35299857E-01  0.00000000E+00  0.00000000E+00
  0.00000000E+00  0.00000000E+00  5.93045143E-01  0.00000000E+00  0.00000000E+00
  0.00000000E+00  0.00000000E+00  1.00000000E+00  0.00000000E+00  0.00000000E+00
  0.00000000E+00  0.00000000E+00  0.00000000E+00  0.00000000E+00  0.00000000E+00
  0.00000000E+00  0.00000000E+00  0.00000000E+00  0.00000000E+00  0.00000000E+00
  0.00000000E+00  0.00000000E+00  0.00000000E+00  0.00000000E+00  0.00000000E+00
  1.35299857E-01  0.00000000E+00  0.00000000E+00  0.00000000E+00  0.00000000E+00
  5.93045143E-01  0.00000000E+00  0.00000000E+00  0.00000000E+00  0.00000000E+00
  1.00000000E+00  0.00000000E+00  0.00000000E+00  0.00000000E+00  0.00000000E+00
  0.00000000E+00  0.00000000E+00  0.00000000E+00  0.00000000E+00  0.00000000E+00
  0.00000000E+00  0.00000000E+00  0.00000000E+00  0.00000000E+00  0.00000000E+00
  0.00000000E+00  0.00000000E+00  0.00000000E+00  0.00000000E+00  1.35299857E-01
  0.00000000E+00  0.00000000E+00  0.00000000E+00  0.00000000E+00  5.93045143E-01
  0.00000000E+00  0.00000000E+00  0.00000000E+00  0.00000000E+00  1.00000000E+00
  0.00000000E+00  0.00000000E+00  0.00000000E+00  0.00000000E+00  0.00000000E+00
  0.00000000E+00  0.00000000E+00  0.00000000E+00  0.00000000E+00  0.00000000E+00
  0.00000000E+00  0.00000000E+00  0.00000000E+00  0.00000000E+00  0.00000000E+00
  0.00000000E+00  0.00000000E+00  0.00000000E+00  0.00000000E+00  1.35299857E-01
  0.00000000E+00  0.00000000E+00  0.00000000E+00  0.00000000E+00  5.93045143E-01
  0.00000000E+00  0.00000000E+00  0.00000000E+00  0.00000000E+00  1.00000000E+00
  0.00000000E+00  0.00000000E+00  0.00000000E+00  0.00000000E+00  0.00000000E+00
  0.00000000E+00  1.76140029E-02  0.00000000E+00  0.00000000E+00  1.77515635E-01
  0.00000000E+00  0.00000000E+00  5.39680863E-01  0.00000000E+00  0.00000000E+00
  0.00000000E+00  0.00000000E+00  0.00000000E+00  0.00000000E+00  0.00000000E+00
  0.00000000E+00  0.00000000E+00  0.00000000E+00  0.00000000E+00  0.00000000E+00
  0.00000000E+00  0.00000000E+00  0.00000000E+00  0.00000000E+00  0.00000000E+00
  1.00000000E+00  0.00000000E+00  0.00000000E+00  0.00000000E+00  0.00000000E+00
  0.00000000E+00  0.00000000E+00  0.00000000E+00  1.76140029E-02  0.00000000E+00
  0.00000000E+00  1.77515635E-01  0.00000000E+00  0.00000000E+00  5.39680863E-01
  0.00000000E+00  0.00000000E+00  0.00000000E+00  0.00000000E+00  0.00000000E+00
  0.00000000E+00  0.00000000E+00  0.00000000E+00  0.00000000E+00  0.00000000E+00
  0.00000000E+00  0.00000000E+00  0.00000000E+00  0.00000000E+00  0.00000000E+00
  0.00000000E+00  0.00000000E+00  1.00000000E+00  0.00000000E+00  0.00000000E+00
  0.00000000E+00  0.00000000E+00  0.00000000E+00  0.00000000E+00  0.00000000E+00
  0.00000000E+00  1.76140029E-02  0.00000000E+00  0.00000000E+00  1.77515635E-01
  0.00000000E+00  0.00000000E+00  5.39680863E-01  0.00000000E+00  0.00000000E+00
  0.00000000E+00  0.00000000E+00  0.00000000E+00  0.00000000E+00  0.00000000E+00
  0.00000000E+00  0.00000000E+00  0.00000000E+00  0.00000000E+00  0.00000000E+00
  0.00000000E+00  0.00000000E+00  0.00000000E+00  0.00000000E+00  0.00000000E+00
  1.00000000E+00  0.00000000E+00  0.00000000E+00  0.00000000E+00  0.00000000E+00
  0.00000000E+00  0.00000000E+00  0.00000000E+00  0.00000000E+00  0.00000000E+00
  0.00000000E+00  0.00000000E+00  0.00000000E+00  0.00000000E+00  0.00000000E+00
  0.00000000E+00  2.42685390E-02  0.00000000E+00  0.00000000E+00  0.00000000E+00
  0.00000000E+00  1.57665161E-01  0.00000000E+00  0.00000000E+00  0.00000000E+00
  0.00000000E+00  5.93545973E-01  0.00000000E+00  0.00000000E+00  0.00000000E+00
  0.00000000E+00  0.00000000E+00  0.00000000E+00  0.00000000E+00  1.00000000E+00
  0.00000000E+00  0.00000000E+00  0.00000000E+00  0.00000000E+00  0.00000000E+00
  0.00000000E+00  0.00000000E+00  0.00000000E+00  0.00000000E+00  0.00000000E+00
  0.00000000E+00  0.00000000E+00  0.00000000E+00  0.00000000E+00  0.00000000E+00
  0.00000000E+00  2.42685390E-02  0.00000000E+00  0.00000000E+00  0.00000000E+00
  0.00000000E+00  1.57665161E-01  0.00000000E+00  0.00000000E+00  0.00000000E+00
  0.00000000E+00  5.93545973E-01  0.00000000E+00  0.00000000E+00  0.00000000E+00
  0.00000000E+00  0.00000000E+00  0.00000000E+00  0.00000000E+00  1.00000000E+00
  0.00000000E+00  0.00000000E+00  0.00000000E+00  0.00000000E+00  0.00000000E+00
  0.00000000E+00  0.00000000E+00  0.00000000E+00  0.00000000E+00  0.00000000E+00
  0.00000000E+00  0.00000000E+00  0.00000000E+00  0.00000000E+00  0.00000000E+00
  0.00000000E+00  0.00000000E+00  2.42685390E-02  0.00000000E+00  0.00000000E+00
  0.00000000E+00  0.00000000E+00  1.57665161E-01  0.00000000E+00  0.00000000E+00
  0.00000000E+00  0.00000000E+00  5.93545973E-01  0.00000000E+00  0.00000000E+00
  0.00000000E+00  0.00000000E+00  0.00000000E+00  0.00000000E+00  0.00000000E+00
  1.00000000E+00  0.00000000E+00  0.00000000E+00  0.00000000E+00  0.00000000E+00
  0.00000000E+00  0.00000000E+00  0.00000000E+00  0.00000000E+00  0.00000000E+00
  0.00000000E+00  0.00000000E+00  0.00000000E+00  0.00000000E+00  0.00000000E+00
  0.00000000E+00  0.00000000E+00  0.00000000E+00  0.00000000E+00  2.42685390E-02
  0.00000000E+00  0.00000000E+00  0.00000000E+00  0.00000000E+00  1.57665161E-01
  0.00000000E+00  0.00000000E+00  0.00000000E+00  0.00000000E+00  5.93545973E-01
  0.00000000E+00  0.00000000E+00  0.00000000E+00  0.00000000E+00  0.00000000E+00
  0.00000000E+00  0.00000000E+00  1.00000000E+00  0.00000000E+00  0.00000000E+00
  0.00000000E+00  0.00000000E+00  0.00000000E+00  0.00000000E+00  0.00000000E+00
  0.00000000E+00  0.00000000E+00  0.00000000E+00  0.00000000E+00  0.00000000E+00
  0.00000000E+00  0.00000000E+00  0.00000000E+00  0.00000000E+00  0.00000000E+00
  0.00000000E+00  0.00000000E+00  2.42685390E-02  0.00000000E+00  0.00000000E+00
  0.00000000E+00  0.00000000E+00  1.57665161E-01  0.00000000E+00  0.00000000E+00
  0.00000000E+00  0.00000000E+00  5.93545973E-01  0.00000000E+00  0.00000000E+00
  0.00000000E+00  0.00000000E+00  0.00000000E+00  0.00000000E+00  0.00000000E+00
  1.00000000E+00  0.00000000E+00  0.00000000E+00  0.00000000E+00  0.00000000E+00
  0.00000000E+00  0.00000000E+00  0.00000000E+00  0.00000000E+00 -1.38777878E-17
  0.00000000E+00  0.00000000E+00  0.00000000E+00  0.00000000E+00  0.00000000E+00
  0.00000000E+00  0.00000000E+00  0.00000000E+00  0.00000000E+00  0.00000000E+00
  0.00000000E+00  0.00000000E+00  0.00000000E+00  0.00000000E+00  0.00000000E+00
  0.00000000E+00  0.00000000E+00  0.00000000E+00  0.00000000E+00  0.00000000E+00
  0.00000000E+00  0.00000000E+00  0.00000000E+00 -5.55111512E-17  0.00000000E+00
  0.00000000E+00  0.00000000E+00  0.00000000E+00  0.00000000E+00  1.00000000E+00
  0.00000000E+00  0.00000000E+00  0.00000000E+00  0.00000000E+00  0.00000000E+00
  0.00000000E+00  1.38777878E-17  0.00000000E+00  0.00000000E+00  0.00000000E+00
  0.00000000E+00  0.00000000E+00  0.00000000E+00  0.00000000E+00  0.00000000E+00
  0.00000000E+00  0.00000000E+00  0.00000000E+00  0.00000000E+00  0.00000000E+00
  0.00000000E+00  0.00000000E+00  0.00000000E+00  0.00000000E+00  0.00000000E+00
  0.00000000E+00  0.00000000E+00  0.00000000E+00  0.00000000E+00  0.00000000E+00
  2.77555756E-17  0.00000000E+00  0.00000000E+00  0.00000000E+00  0.00000000E+00
  0.00000000E+00  0.00000000E+00  0.00000000E+00  0.00000000E+00  1.00000000E+00
  0.00000000E+00  0.00000000E+00  0.00000000E+00  0.00000000E+00  0.00000000E+00
  0.00000000E+00  0.00000000E+00  1.38777878E-17  0.00000000E+00  0.00000000E+00
  0.00000000E+00  0.00000000E+00  0.00000000E+00  0.00000000E+00  0.00000000E+00
  0.00000000E+00  0.00000000E+00  0.00000000E+00  0.00000000E+00  0.00000000E+00
  0.00000000E+00  0.00000000E+00  0.00000000E+00  0.00000000E+00  0.00000000E+00
  0.00000000E+00  0.00000000E+00  0.00000000E+00  0.00000000E+00  0.00000000E+00
  0.00000000E+00  2.77555756E-17  0.00000000E+00  0.00000000E+00  0.00000000E+00
  0.00000000E+00  0.00000000E+00  0.00000000E+00  0.00000000E+00  0.00000000E+00
  1.00000000E+00  0.00000000E+00  0.00000000E+00  0.00000000E+00  0.00000000E+00
  0.00000000E+00  0.00000000E+00  0.00000000E+00  0.00000000E+00  0.00000000E+00
  0.00000000E+00  0.00000000E+00  0.00000000E+00  0.00000000E+00  0.00000000E+00
  0.00000000E+00  0.00000000E+00  0.00000000E+00  0.00000000E+00  0.00000000E+00
  0.00000000E+00  0.00000000E+00  0.00000000E+00  0.00000000E+00  0.00000000E+00
  0.00000000E+00  0.00000000E+00  0.00000000E+00  0.00000000E+00  0.00000000E+00
  0.00000000E+00  0.00000000E+00  0.00000000E+00  0.00000000E+00  0.00000000E+00
  0.00000000E+00  0.00000000E+00  0.00000000E+00  0.00000000E+00  0.00000000E+00
  0.00000000E+00  0.00000000E+00  1.00000000E+00  0.00000000E+00  0.00000000E+00
  0.00000000E+00  0.00000000E+00  0.00000000E+00  0.00000000E+00  0.00000000E+00
  0.00000000E+00  0.00000000E+00  0.00000000E+00  0.00000000E+00  0.00000000E+00
  0.00000000E+00  0.00000000E+00  0.00000000E+00  0.00000000E+00  0.00000000E+00
  0.00000000E+00  0.00000000E+00  0.00000000E+00  0.00000000E+00  0.00000000E+00
  0.00000000E+00  0.00000000E+00  0.00000000E+00  0.00000000E+00  0.00000000E+00
  0.00000000E+00  0.00000000E+00  0.00000000E+00  0.00000000E+00  0.00000000E+00
  0.00000000E+00  0.00000000E+00  0.00000000E+00  0.00000000E+00  0.00000000E+00
  0.00000000E+00  0.00000000E+00  0.00000000E+00  0.00000000E+00  0.00000000E+00
  1.00000000E+00  0.00000000E+00  0.00000000E+00  0.00000000E+00  0.00000000E+00
  0.00000000E+00  0.00000000E+00 -6.93889390E-18  0.00000000E+00  0.00000000E+00
  1.11022302E-16  0.00000000E+00  0.00000000E+00  1.11022302E-16  0.00000000E+00
  0.00000000E+00  0.00000000E+00  0.00000000E+00  0.00000000E+00  0.00000000E+00
  0.00000000E+00  0.00000000E+00  0.00000000E+00  0.00000000E+00  0.00000000E+00
  0.00000000E+00  0.00000000E+00  0.00000000E+00  0.00000000E+00  0.00000000E+00
  0.00000000E+00  0.00000000E+00  0.00000000E+00  0.00000000E+00  0.00000000E+00
  0.00000000E+00  0.00000000E+00  0.00000000E+00  0.00000000E+00  0.00000000E+00
  0.00000000E+00  0.00000000E+00  0.00000000E+00  0.00000000E+00  1.00000000E+00
  0.00000000E+00  0.00000000E+00  0.00000000E+00  0.00000000E+00  0.00000000E+00
  0.00000000E+00  0.00000000E+00  6.93889390E-18  0.00000000E+00  0.00000000E+00
 -1.11022302E-16  0.00000000E+00  0.00000000E+00 -1.11022302E-16  0.00000000E+00
  0.00000000E+00  0.00000000E+00  0.00000000E+00  0.00000000E+00  0.00000000E+00
  0.00000000E+00  0.00000000E+00  0.00000000E+00  0.00000000E+00  0.00000000E+00
  0.00000000E+00  0.00000000E+00  0.00000000E+00  0.00000000E+00  0.00000000E+00
  0.00000000E+00  0.00000000E+00  0.00000000E+00  0.00000000E+00  0.00000000E+00
  0.00000000E+00  0.00000000E+00  0.00000000E+00  0.00000000E+00  0.00000000E+00
 -1.38777878E-16  0.00000000E+00  0.00000000E+00  0.00000000E+00  1.00000000E+00
  2.73734279E-82  1.00978413E-24  4.05546591E-08  1.52615410E-04  1.17313133E-02
  1.11014076E-02  4.82072293E-25  4.82072293E-25  4.82072293E-25  4.97963738E-07
  4.97963738E-07  4.97963738E-07  1.30272702E-03  1.30272702E-03  1.30272702E-03
  1.24077092E-24  3.75887126E-09  3.75887126E-09 -4.13590306E-25  3.75887126E-09
  1.62630326E-19  5.49568208E-04  5.49568208E-04 -2.16840434E-19  5.49568208E-04
  5.20417043E-18  1.68892291E-02  1.68892291E-02 -6.93889390E-18  1.68892291E-02
  1.43282472E-02  1.43282472E-02  1.43282472E-02  3.46944695E-18  1.43181957E-02
  1.43181957E-02 -4.33680869E-18  1.43181957E-02 -4.48505716E-06  2.74652538E-06
  2.74652538E-06 -3.38813179E-21  8.68527584E-06 -3.54574902E-06  3.54574902E-06
  1.00000000E+00  4.95096039E-21  1.98902018E-13  1.89860359E-06  7.87644042E-04
  3.97567129E-02  3.76237328E-02  2.30636681E-13  2.30636681E-13  2.30636681E-13
  1.09045301E-05  1.09045301E-05  1.09045301E-05  5.33490629E-03  5.33490629E-03
  5.33490629E-03  2.11758237E-22  7.63497787E-07  7.63497787E-07 -3.17637355E-22
  7.63497787E-07  8.67361738E-19  2.76611094E-03  2.76611094E-03 -1.30104261E-18
  2.76611094E-03  1.38777878E-17  5.59025583E-02  5.59025583E-02 -1.04083409E-17
  5.59025583E-02  4.78911608E-02  4.78911608E-02  4.78911608E-02  1.38777878E-17
  4.74399610E-02  4.74399610E-02 -1.04083409E-17  4.74399610E-02 -7.55706968E-05
  4.62774117E-05  4.62774117E-05 -4.06575815E-20  1.46342025E-04 -5.97438816E-05
  5.97438816E-05  6.81549960E-01  1.00000000E+00  1.39338754E-06  2.79324245E-05
  1.42202922E-03  1.32560728E-02  1.58172941E-01  1.50109647E-01  1.89396258E-05
  1.89396258E-05  1.89396258E-05  2.30081387E-03  2.30081387E-03  2.30081387E-03
  4.03922160E-02  4.03922160E-02  4.03922160E-02  4.33680869E-19  1.15632897E-03
  1.15632897E-03 -7.58941521E-19  1.15632897E-03  1.04083409E-17  3.18575279E-02
  3.18575279E-02 -1.38777878E-17  3.18575279E-02  2.77555756E-17  1.88645353E-01
  1.88645353E-01 -6.93889390E-17  1.88645353E-01  1.75789832E-01  1.75789832E-01
  1.75789832E-01  4.16333634E-17  1.65814461E-01  1.65814461E-01 -6.93889390E-17
  1.65814461E-01 -5.53149763E-03  3.38733668E-03  3.38733668E-03 -6.07153217E-18
  1.07116991E-02 -4.37303284E-03  4.37303284E-03  1.91928927E-01  5.44963444E-01
  1.00000000E+00  5.25942247E-04  4.15059887E-03  2.46427365E-02  6.42825381E-02
  2.94507394E-01  2.83301651E-01  1.33523381E-03  1.33523381E-03  1.33523381E-03
  2.03891522E-02  2.03891522E-02  2.03891522E-02  1.01183394E-01  1.01183394E-01
  1.01183394E-01  0.00000000E+00  9.16139556E-03  9.16139556E-03 -3.46944695E-18
  9.16139556E-03  1.38777878E-17  7.10856958E-02  7.10856958E-02 -1.38777878E-17