Automatically generated file for job o2_cas
SP        CASSCF def2svp
Number of atoms                            I                2
Charge                                     I                0
Number of electrons                        I               16
Number of alpha electrons                  I                9
Number of beta electrons                   I                7
Number of basis functions                  I               30
Number of independent functions            I               30
Atomic numbers                             I   N=           2
           8           8
Nuclear charges                            R   N=           2
  8.00000000E+00  8.00000000E+00
Current cartesian coordinates              R   N=           6
  0.00000000E+00  0.00000000E+00  0.00000000E+00  0.00000000E+00  0.00000000E+00
  2.26767135E+00
Force Field
Int Atom Types
MM charges
Atom fragment info
Atom residue num
Nuclear spins
Nuclear QMom
Nuclear GFac
MicOpt
SymInf integers
RotTr to input orientation
Nuclear ZEff
Nuclear ZNuc
Integer atomic weights
Real atomic weights
Number of contracted shells                I               12
Number of primitive shells                 I               24
Pure/Cartesian d shells                    I                1
Pure/Cartesian f shells                    I                1
Highest angular momentum                   I                2
Largest degree of contraction              I                5
Shell types                                I   N=          12
           0           0           0           1           1           2
           0           0           0           1           1           2
Number of primitives per shell             I   N=          12
           5           1           1           3           1           1
           5           1           1           3           1           1
Shell to atom map                          I   N=          12
           1           1           1           1           1           1
           2           2           2           2           2           2
Primitive exponents                        R   N=          24
  2.26617678E+03  3.40870102E+02  7.73631352E+01  2.14796449E+01  6.65894331E+00
  8.09759757E-01  2.55307722E-01  1.77215043E+01  3.86355054E+00  1.04809209E+00
  2.76415444E-01  1.20000000E+00  2.26617678E+03  3.40870102E+02  7.73631352E+01
  2.14796449E+01  6.65894331E+00  8.09759757E-01  2.55307722E-01  1.77215043E+01
  3.86355054E+00  1.04809209E+00  2.76415444E-01  1.20000000E+00
Contraction coefficients                   R   N=          24
 -5.38935039E-03 -4.02347214E-02 -1.80081842E-01 -4.68288577E-01 -4.46926172E-01
  1.00000000E+00  1.00000000E+00  6.26302488E-02  3.33311385E-01  7.41486383E-01
  1.00000000E+00  1.00000000E+00 -5.38935039E-03 -4.02347214E-02 -1.80081842E-01
 -4.68288577E-01 -4.46926172E-01  1.00000000E+00  1.00000000E+00  6.26302488E-02
  3.33311385E-01  7.41486383E-01  1.00000000E+00  1.00000000E+00
Coordinates of each shell                  R   N=          36
  0.00000000E+00  0.00000000E+00  0.00000000E+00  0.00000000E+00  0.00000000E+00
  0.00000000E+00  0.00000000E+00  0.00000000E+00  0.00000000E+00  0.00000000E+00
  0.00000000E+00  0.00000000E+00  0.00000000E+00  0.00000000E+00  0.00000000E+00
  0.00000000E+00  0.00000000E+00  0.00000000E+00  0.00000000E+00  0.00000000E+00
  2.26767135E+00  0.00000000E+00  0.00000000E+00  2.26767135E+00  0.00000000E+00
  0.00000000E+00  2.26767135E+00  0.00000000E+00  0.00000000E+00  2.26767135E+00
  0.00000000E+00  0.00000000E+00  2.26767135E+00  0.00000000E+00  0.00000000E+00
  2.26767135E+00
Constraint Structure                       R   N=           6
Num ILSW                                   I                0
ILSW                                       I   N=           0
Num RLSW                                   I                0
RLSW                                       R   N=           0
MxBond                                     I                0
NBond                                      I   N=           0
IBond                                      I   N=           0
RBond                                      R   N=           0
Virial Ratio                               R      2.004871309280097E+00
SCF Energy                                 R     -1.495714095769059E+02
Total Energy                               R     -1.495714095769059E+02
S**2                                       R      1.999999999999999E+00
RMS Density                                R      0.000000000000000E+00
Job Status                                 I                1
External E-field                           R   N=          35
  0.00000000E+00  0.00000000E+00  0.00000000E+00  0.00000000E+00  0.00000000E+00
  0.00000000E+00  0.00000000E+00  0.00000000E+00  0.00000000E+00  0.00000000E+00
  0.00000000E+00  0.00000000E+00  0.00000000E+00  0.00000000E+00  0.00000000E+00
  0.00000000E+00  0.00000000E+00  0.00000000E+00  0.00000000E+00  0.00000000E+00
  0.00000000E+00  0.00000000E+00  0.00000000E+00  0.00000000E+00  0.00000000E+00
  0.00000000E+00  0.00000000E+00  0.00000000E+00  0.00000000E+00  0.00000000E+00
  0.00000000E+00  0.00000000E+00  0.00000000E+00  0.00000000E+00  0.00000000E+00
IOpCl                                      I                0
IROHF                                      I                0
Number of CAS Electrons                    I                6
Number of CAS Orbitals                     I                8
Alpha Orbital Energies                     R   N=          30
  0.00000000E+00  0.00000000E+00  0.00000000E+00  0.00000000E+00  0.00000000E+00
  0.00000000E+00  0.00000000E+00  0.00000000E+00  0.00000000E+00  0.00000000E+00
  0.00000000E+00  0.00000000E+00  0.00000000E+00  0.00000000E+00  0.00000000E+00
  0.00000000E+00  0.00000000E+00  0.00000000E+00  0.00000000E+00  0.00000000E+00
  0.00000000E+00  0.00000000E+00  0.00000000E+00  0.00000000E+00  0.00000000E+00
  0.00000000E+00  0.00000000E+00  0.00000000E+00  0.00000000E+00  0.00000000E+00
Alpha MO coefficients                      R   N=         900
  6.99012790E-01 -2.64918280E-02  3.89066533E-03  4.29885782E-08  1.85560718E-08
 -1.11653611E-03  3.56812862E-08  7.52389722E-09  7.73035275E-04  2.96722067E-03
  2.96721890E-03  3.61460766E-03  2.33392852E-10  8.15776933E-09  3.89503132E-09
  6.99166224E-01 -2.64975480E-02  3.89278677E-03  4.48156331E-08  1.09249008E-08
  1.11695047E-03  3.28881366E-08  2.38474899E-08 -7.73649312E-04  2.96780084E-03
  2.96780241E-03  3.61489744E-03  4.70640328E-10 -6.99872052E-09 -4.22371148E-09
 -6.99447700E-01  2.60555411E-02 -9.66253523E-03 -2.79455138E-08  9.69286155E-08
  1.88173830E-03 -1.96906306E-08  6.67861904E-08 -2.79769192E-03 -2.64679081E-03
 -2.64679534E-03 -1.31507283E-03  3.61554398E-09 -7.66739565E-09  4.97288726E-09
  6.99294326E-01 -2.60497333E-02  9.66168266E-03 -4.77777425E-08  7.97710526E-08
  1.88149382E-03 -3.34024753E-08  5.78786264E-08 -2.79752285E-03  2.64614078E-03
  2.64614578E-03  1.31428159E-03  7.01599480E-10 -2.97309312E-10 -1.02764560E-08
  2.00300138E-01  4.06513835E-01  1.75542887E-01 -9.39203064E-06 -6.60439080E-06
  1.67300328E-01 -5.85591710E-06 -4.18848769E-06  4.36409838E-02 -6.47341735E-04
 -6.47316144E-04  3.55684558E-02  3.81345240E-08 -6.01860274E-07 -5.01548541E-07
  2.00300104E-01  4.06513703E-01  1.75542984E-01 -9.57325531E-06 -8.20392812E-06
 -1.67300245E-01 -6.15330026E-06 -5.22170171E-06 -4.36409889E-02 -6.47340452E-04
 -6.47310876E-04  3.55684587E-02  1.30623318E-08  6.03748302E-07  4.81686056E-07
  2.12946356E-01  4.49500426E-01  3.58994184E-01  1.66707342E-06  8.01585334E-06
 -1.44503403E-01  1.86770221E-06  5.45908267E-06 -5.77265355E-02  1.33702807E-02
  1.33703413E-02  2.95547352E-03 -2.79031173E-07 -4.05989223E-08  5.21332548E-07
 -2.12946315E-01 -4.49500205E-01 -3.58994386E-01  7.12489321E-07  7.53331457E-06
 -1.44503326E-01 -2.82429630E-07  4.18916518E-06 -5.77265413E-02 -1.33703953E-02
 -1.33702234E-02 -2.95544331E-03 -6.47442166E-08 -2.23427802E-07 -6.84113660E-07
  7.24429906E-02  1.38439130E-01  2.44893622E-01  8.35698011E-06  7.31600376E-06
 -4.61623382E-01  5.02715652E-06  4.68985306E-06 -2.36911262E-01  1.24222586E-02
  1.24219658E-02 -3.44362054E-02 -8.30838457E-08  3.10217296E-07  4.32197702E-07
  7.24430157E-02  1.38439155E-01  2.44893753E-01  6.82046223E-06  6.17841245E-06
  4.61623207E-01  4.05181578E-06  3.71678617E-06  2.36911267E-01  1.24222755E-02
  1.24219777E-02 -3.44362123E-02 -1.07577203E-07 -3.44159929E-07 -2.98412526E-07
 -1.01585653E-06 -1.99588682E-06 -6.10631813E-06 -2.33710865E-03  4.50511958E-01
  1.28894662E-05  2.03404337E-03  2.78534447E-01  7.12613898E-06 -3.82749427E-07
 -2.45045805E-07  1.18188562E-06 -3.24251199E-08  2.48710155E-04  3.20545817E-02
  5.68174694E-06  1.26068430E-05  3.33984593E-06 -2.11847456E-03  4.50481843E-01
 -6.10076221E-06  1.87102460E-03  2.78263972E-01 -1.94632193E-06 -6.92241946E-08
  2.25770258E-07  8.17541945E-07  2.22079166E-07 -2.52612049E-04 -3.20596237E-02
  2.23615917E-06  5.04752943E-06 -2.65453452E-06  4.48558894E-01 -2.04718128E-03
  1.06704572E-05  2.79956988E-01  1.99204984E-03  4.58754518E-06  2.09980050E-07
 -3.81657886E-07  1.32997466E-06  1.64604869E-07  3.22829517E-02  2.54245776E-04
  3.83174742E-06  8.48008435E-06  3.82584106E-07  4.48548256E-01 -2.31729335E-03
 -1.10575216E-05  2.80308754E-01  1.97147281E-03 -5.94028022E-06  2.97245368E-07
 -1.53374738E-07  1.47080019E-06  2.64223757E-07 -3.22762207E-02 -2.53716715E-04
  1.66108086E-06  4.54717434E-06  5.80712030E-06 -2.18940862E-01 -5.00533786E-01
  2.53685174E-06 -1.44250485E-01 -3.47136160E-01  4.96636805E-06 -5.03346020E-07
  8.85146456E-07 -2.82441319E-07 -1.27427516E-06  1.94093176E-03  4.76014566E-03
 -3.33329984E-07 -1.20842926E-07 -6.77533773E-06  2.19058402E-01  5.00596660E-01
  3.45640587E-06  1.44307634E-01  3.47189870E-01  5.70964983E-06 -2.91072332E-07
  3.26138147E-07 -2.04393899E-07  5.93882184E-07  1.93437447E-03  4.75384111E-03
 -7.51713261E-07 -1.98379334E-06 -3.23952570E-06  5.00700581E-01 -2.12619315E-01
 -1.59322743E-06  3.47129927E-01 -1.55032224E-01 -2.97344820E-06  1.10939506E-07
 -3.69790212E-07  5.25743471E-08 -2.11493562E-09 -4.74886043E-03  2.16709944E-03
  7.80670349E-07  2.07827043E-06  3.08056300E-06 -5.00531424E-01  2.12741422E-01
 -2.69001680E-06 -3.47022785E-01  1.55090401E-01 -3.14163286E-06 -2.15574808E-07
  3.92609004E-07 -3.08091920E-08 -3.80758524E-07 -4.76146233E-03  2.16040149E-03
 -7.53997344E-06 -2.99950121E-05  1.74296840E-05 -6.04009813E-01  2.69024506E-01
 -3.73577088E-05  7.88118644E-01 -7.95015818E-02 -2.68449317E-05 -2.36017347E-05
  9.68290645E-07 -6.15791497E-06 -3.66023968E-06  2.39879361E-02 -6.05533608E-02
  1.59986627E-05  6.83946510E-05 -4.10542963E-05 -2.28537701E-03  6.62371779E-01
 -3.23683865E-05 -2.44974982E-01 -7.54814041E-01 -3.40971961E-05  3.38346108E-06
  1.81813883E-05 -7.50078596E-06  7.24609286E-06 -4.56378830E-02  4.64020028E-02
 -1.81690548E-06 -9.60681835E-06  5.98845996E-06 -3.42825592E-01  5.25098025E-01
  1.16038181E-05  5.81574379E-01 -8.90240071E-01 -3.06952645E-06 -1.95786324E-06
  1.42623895E-06  8.20724579E-06  1.41650948E-05 -1.22382393E-02  1.86545723E-02
 -6.95809956E-06 -3.15167847E-05  2.41417940E-05  3.43374422E-01 -5.24714332E-01
  3.71524209E-06 -5.82037322E-01  8.89914632E-01  8.04721083E-06  9.80056761E-06
 -1.22720092E-05  4.77254512E-06 -7.96814492E-07 -1.21764462E-02  1.86963493E-02
 -4.74418654E-06 -2.42498424E-05  5.72320049E-05 -2.08847731E-01 -6.07171398E-01
 -4.54521583E-05  5.35741491E-01  7.71599364E-01  1.39856965E-05 -2.25932080E-05
 -1.48131113E-06 -1.55659782E-05  1.53327300E-06 -4.00268216E-02  2.78632924E-02
  1.09002270E-05  5.13148722E-05 -7.59856970E-05  6.40089550E-01 -5.22605249E-02
 -3.79258682E-05 -9.21836094E-01 -1.81117786E-01  1.35440696E-06  2.09500226E-05
  9.76550886E-06 -4.65257776E-07  2.31466447E-05  9.47203148E-03 -4.78353896E-02
 -3.34414617E-06 -8.93017161E-06 -9.03125050E-07  5.73924107E-01  3.73824055E-01
  3.72969730E-06 -5.10555476E-01 -3.32256814E-01 -2.18114217E-05  5.64943870E-06
 -4.31086868E-06  6.11784623E-06  2.05155134E-06 -6.52981849E-02 -4.25853443E-02
  5.38569333E-06  2.72482678E-05 -1.39778668E-05  5.72595631E-01  3.73660487E-01
 -1.19055141E-05 -5.08274075E-01 -3.31977548E-01  1.63979076E-06 -1.06321588E-07
  1.74299591E-06 -5.52773515E-07  6.27911547E-06  6.53476233E-02  4.25910446E-02
 -1.27127312E-01 -2.95313061E-01 -1.28412279E+00  4.08931905E-05  1.65926617E-05
 -4.27605532E-01 -7.94275984E-05 -4.82799934E-05 -1.26844687E+00 -2.59956115E-02
 -2.59956252E-02  6.59834749E-05 -9.02561392E-10  8.85380032E-07  6.77374685E-07
  1.27127327E-01  2.95313082E-01  1.28412278E+00 -4.19890993E-05 -5.68296095E-05
 -4.27605625E-01  7.87972232E-05  8.72942776E-05 -1.26844692E+00  2.59956058E-02
  2.59956185E-02 -6.59792054E-05  4.57570218E-09  9.22958120E-07  8.58544885E-07
  1.41260316E-01  9.23335692E-01 -1.06007592E+00 -1.67025230E-06  5.13478121E-06
 -6.40975770E-02  7.01171684E-08 -1.28879346E-05 -3.25806731E-02  1.17080480E-01
  1.17080474E-01  1.83391005E-01 -9.52222993E-09 -9.60500266E-08 -4.11236524E-08
  1.41260349E-01  9.23335659E-01 -1.06007552E+00 -5.40905183E-06 -1.77330903E-05
  6.40975125E-02  5.51657284E-06  2.37330751E-05  3.25806619E-02  1.17080460E-01
  1.17080457E-01  1.83390973E-01 -2.96528445E-09  1.69337474E-07  4.20213243E-07
 -7.31092590E-02 -5.82406667E-01  9.78154587E-01  1.80148082E-06 -5.59009944E-06
  5.68000105E-01 -2.41041869E-06  3.79190069E-06 -3.63625877E-01 -8.06942304E-02
 -8.06942214E-02 -1.63449632E-01  1.40828427E-08 -3.83535362E-08 -4.78456005E-07
  7.31092907E-02  5.82406874E-01 -9.78154699E-01 -2.87157058E-06 -1.09125875E-05
  5.68000022E-01  3.39851352E-06  1.12953523E-05 -3.63625596E-01  8.06942443E-02
  8.06942311E-02  1.63449695E-01 -2.87328349E-09  4.89910699E-08  5.21429121E-07
 -1.91372959E-02  5.62625706E-02  1.50991467E-01 -1.10185289E-05 -1.48401803E-05
  5.84869907E-01  1.32748065E-05  2.14526914E-05 -8.25430039E-01 -3.99971769E-02
 -3.99971623E-02  1.26369406E-01  4.91289638E-09 -5.66923548E-07 -5.24115228E-07
 -1.91373287E-02  5.62623326E-02  1.50992006E-01 -3.81420870E-06  4.26329002E-06
 -5.84870055E-01  1.16993762E-06 -1.11521529E-05  8.25429977E-01 -3.99972099E-02
 -3.99971947E-02  1.26369363E-01  6.00187263E-09  4.59548200E-07  2.17237930E-07
 -1.10287984E-01 -9.82498808E-01  4.27227686E+00  1.56459009E-05  1.45532632E-05
 -4.25804424E-01 -3.03240169E-05 -2.69693583E-05  2.53761198E+00 -1.45290154E-01
 -1.45290158E-01 -4.88790086E-02  3.24096050E-09 -1.09549420E-08 -2.75481249E-08
  1.10287999E-01  9.82498863E-01 -4.27227689E+00 -2.06754635E-05 -1.89572596E-05
 -4.25804496E-01  3.46691704E-05  3.13792049E-05  2.53761201E+00  1.45290152E-01
  1.45290158E-01  4.88790217E-02  3.43503081E-09  5.00482411E-07  4.64871184E-07
 -5.31774692E-07 -1.60636692E-06 -3.02262725E-06 -1.49174547E-02  2.80685727E-02
 -6.31431174E-07  6.77066731E-02 -1.27390997E-01 -5.20690081E-06  3.34316683E-06
 -3.39497577E-06 -6.00924737E-07  3.40655163E-06 -2.98057572E-01  5.60780678E-01
  6.28661911E-07  2.78477625E-06  1.17486434E-06 -1.49195776E-02  2.80684785E-02
 -8.12704692E-07  6.77106824E-02 -1.27390481E-01 -4.62063407E-06  5.96011885E-06
 -5.25477033E-06  1.41126988E-06  4.61617205E-06  2.98056572E-01 -5.60781499E-01
 -3.00843574E-07 -9.04304548E-07  2.38661813E-06  2.80629933E-02  1.49166762E-02
  5.56551471E-07 -1.27384948E-01 -6.77070651E-02 -2.41799106E-06 -3.14324462E-06
  2.43743334E-06  1.98313316E-07 -2.37045550E-06  5.60781404E-01  2.98057339E-01
  4.86149899E-07  3.31473015E-06 -4.21059600E-06  2.80663639E-02  1.49162979E-02
 -1.83785554E-06 -1.27390248E-01 -6.77068604E-02  2.10383241E-06 -4.67448695E-07
  1.11781881E-06  1.34742289E-06 -4.07735116E-06 -5.60781581E-01 -2.98057246E-01
  5.37291010E-08  1.18025722E-07  7.05625143E-08  7.77048462E-06  3.31354030E-06
 -1.34754408E-07 -1.78491784E-05 -5.48114298E-06 -6.45126359E-08 -1.57260753E-01
  1.57260789E-01 -6.46707888E-09  6.67209588E-01  3.48164203E-06 -1.08466409E-06
 -4.34560034E-08 -9.20500731E-08 -1.84874264E-08 -1.70287042E-05 -1.52782217E-06
  7.15283004E-08  2.46920912E-05  3.95260117E-06  1.99212792E-08 -1.57260779E-01
  1.57260786E-01 -9.14160222E-09  6.67209590E-01 -3.90939010E-06  1.02102537E-06
  1.84279606E-08  3.94811180E-08 -1.53374210E-08 -8.47903741E-06 -3.22291524E-06
  7.06442762E-08  6.88597806E-06  9.51601498E-06  2.09908417E-08  5.77820459E-01
 -5.77820448E-01  1.26259336E-08  1.81589097E-01  5.78905175E-06 -4.16419045E-06
 -4.38957617E-08 -9.05203417E-08 -6.92172541E-08 -6.54284026E-06  1.39418605E-05
 -1.24407046E-07  4.05488203E-06 -1.76113308E-05 -6.58523777E-08  5.77820433E-01
 -5.77820474E-01  1.52387518E-08  1.81589111E-01 -5.73346766E-06  4.45809722E-06
 -2.09008892E-08 -6.34956780E-08  1.03920587E-08  8.72988959E-06  1.17160782E-05
 -2.07938159E-08 -1.54844711E-05 -1.69231054E-05  3.73238861E-08 -3.43132346E-01
  3.43132251E-01  5.28356346E-08 -6.05775815E-01  2.43001610E-07 -1.62156473E-06
  2.62933529E-08  2.99233869E-08  5.31461823E-08 -1.18541000E-05 -6.77765318E-06
  5.36803397E-08  1.80377072E-05  1.26809289E-05 -1.94924263E-08  3.43132249E-01
 -3.43132327E-01  5.59474366E-08  6.05775817E-01 -1.24529330E-06  7.86302608E-07
  1.90470305E-08  3.62682874E-08  1.74401926E-08  8.07398582E-06 -3.82109471E-06
 -4.62901002E-08 -1.17245120E-05  9.01171679E-06  1.81375714E-09 -5.24617258E-01
  5.24617231E-01  2.97404016E-08  3.96215050E-01 -1.33509801E-06 -1.17239955E-06
 -2.22692574E-08 -6.07081429E-08 -1.02165679E-08 -3.38175958E-06  1.04954332E-05
 -1.87633813E-08  7.97349859E-06 -1.43304541E-05 -3.31173779E-08  5.24617217E-01
 -5.24617279E-01  2.84961799E-08 -3.96215037E-01  7.94572742E-07  1.92133373E-06
 -4.50974094E-02 -3.27099803E-01  1.99668651E-01 -3.00714253E-06 -7.05559279E-06
 -3.45921937E-01  5.54738209E-06  1.24157569E-05  3.08415026E-01 -3.77216558E-01
 -3.77216665E-01  6.12674128E-01  4.16319569E-08  8.22166035E-08  3.17371458E-07
 -4.50974070E-02 -3.27099795E-01  1.99668637E-01  3.73820897E-06  8.26515823E-06
  3.45921938E-01 -6.04504803E-06 -1.32119424E-05 -3.08415017E-01 -3.77216673E-01
 -3.77216539E-01  6.12674133E-01 -3.67591700E-08  3.86103276E-07  7.55221517E-07
 -2.90538913E-07 -1.01605905E-06  4.13675871E-07 -1.31031907E-02 -8.90631270E-03
 -6.16874788E-07  2.41159391E-01  1.63860347E-01 -2.97880599E-07 -1.66245563E-07
  1.43318066E-06 -5.84851571E-07 -3.55139986E-07  6.91492262E-01  4.69840793E-01
  3.13937893E-07  1.51263249E-06 -1.25833146E-06  1.31053731E-02  8.90112867E-03
 -1.01117847E-06 -2.41161277E-01 -1.63855826E-01 -7.75195628E-08  4.46144266E-07
  1.10022002E-07 -3.25806724E-07  1.21001727E-06  6.91492998E-01  4.69839277E-01
 -7.33635835E-10  8.98888544E-08  1.35137084E-07  8.90223026E-03 -1.31009871E-02
  8.32997604E-08 -1.63855044E-01  2.41154712E-01  1.72020254E-07  4.62358237E-07
 -6.11529130E-08 -1.72028117E-07 -7.36119772E-07 -4.69840214E-01  6.91492755E-01
  3.96266612E-08  3.77593529E-07 -8.65509205E-07 -8.90118866E-03  1.31010052E-02
 -1.90977493E-07  1.63854194E-01 -2.41154716E-01  2.67439466E-07 -2.31315518E-07
  9.90716052E-07 -3.71980753E-07  1.77398351E-07 -4.69840002E-01  6.91492741E-01
  7.53159084E-02 -1.30660266E-02  2.14987860E+00  3.57646858E-06 -1.50439798E-06
  3.03787969E-01 -5.54434024E-06  4.14806785E-07  1.37091964E+00 -5.71152774E-01
 -5.71152779E-01  9.70858362E-01  6.75932412E-09  2.68030644E-07  6.86598515E-07
 -7.53159107E-02  1.30660235E-02 -2.14987860E+00 -2.72682509E-06 -3.62750970E-06
  3.03787968E-01  4.84953083E-06  3.83987651E-06  1.37091964E+00  5.71152785E-01
  5.71152770E-01 -9.70858362E-01 -8.35283153E-11  4.60570446E-07 -5.04747731E-07
  5.40863028E-01  1.78294945E+00  4.68822216E-01  1.89212836E-06  2.57720920E-06
  2.21524130E-02 -2.56219743E-06 -5.06203819E-06  4.49268815E-02 -1.02862719E+00
 -1.02862719E+00 -9.04829757E-01  5.10738161E-09 -5.00229771E-09  4.06208281E-07
  5.40863077E-01  1.78294960E+00  4.68822316E-01 -5.22641370E-07 -4.73176999E-06
 -2.21523924E-02  1.45640193E-06  6.88267299E-06 -4.49269000E-02 -1.02862728E+00
 -1.02862727E+00 -9.04829868E-01  4.14175109E-10  1.67839728E-07  8.69230115E-09
 -5.31956426E-01 -1.75505364E+00 -1.01819927E+00 -3.77204545E-06 -4.40087386E-06
  1.83617857E-01  5.95996181E-06  5.50465867E-06 -2.09521047E-01  9.82352702E-01
  9.82352705E-01  1.30336833E+00 -3.93726955E-09 -1.42036562E-07  2.56843507E-07
  5.31956384E-01  1.75505349E+00  1.01819924E+00  2.73756935E-06 -3.27054781E-07
  1.83617864E-01 -5.04586626E-06 -1.42356554E-06 -2.09521041E-01 -9.82352622E-01
 -9.82352614E-01 -1.30336825E+00  5.04940830E-10 -3.04368259E-07 -5.40418225E-07
Total SCF Density                          R   N=         465
  2.13712050E+00  3.00861169E-01  7.75700464E-01  2.77653314E-01  5.32553355E-01
  4.39547035E-01 -5.80584840E-07 -1.59401704E-06 -3.02591081E-06  7.02127062E-01
  9.06327583E-08  4.19490109E-08 -5.45463589E-07 -1.53916518E-07  7.02127627E-01
 -6.55984466E-02 -1.21545149E-01 -2.71157295E-01 -3.52821334E-06 -1.02241649E-06
  5.23943135E-01 -1.44465606E-07 -7.66826440E-07 -1.35516868E-06  4.51655887E-01
  1.02892086E-07 -2.83334068E-06  3.17124898E-01  2.01175582E-07  3.16263877E-07
  2.53000846E-07  3.93992431E-08  4.51656273E-01 -1.33491173E-06  1.71504036E-07
  3.17125133E-01 -3.64334397E-02 -8.21972042E-02 -1.42101286E-01 -3.69536410E-06
 -8.68223181E-07  2.50000964E-01 -2.57589653E-06 -3.67649484E-07  1.22744518E-01
  1.50856249E-02  1.46378991E-02  1.55309357E-02  5.72799015E-07  2.38843579E-07
 -1.55661003E-02  5.61056598E-08  8.10722493E-08 -7.46668980E-03  6.98611740E-04
  1.50856223E-02  1.46378931E-02  1.55308449E-02 -5.01743919E-07 -2.00260721E-07
 -1.55658389E-02 -2.70965242E-07 -1.43075585E-07 -7.46655579E-03  6.98606058E-04
  6.98600385E-04  1.74110878E-02  2.17804303E-02 -2.20329944E-03  3.46075465E-09
  2.72618012E-07  4.28271710E-02 -8.88565492E-08 -4.22511032E-08  1.90928629E-02
 -7.94157643E-04 -7.94135304E-04  4.94899386E-03 -1.20331350E-07 -2.42677914E-07
 -2.27720415E-07  4.38856252E-07  6.35408164E-07  1.70121951E-07  3.04206201E-07
  3.87907759E-07  7.48859674E-08 -9.59204694E-09 -9.59408630E-09  6.77894276E-09
  3.09660806E-12 -4.19789586E-08 -9.82018357E-08 -2.47098463E-07  2.46785467E-02
  7.17243774E-08  2.11362788E-07  1.59074745E-02 -2.71470887E-08  1.14675047E-07
  1.62484373E-08 -8.81732870E-09  1.89567880E-08  2.76786931E-09  2.13278971E-03
  3.07458668E-08  9.14013899E-08  6.21424664E-08  6.96040749E-08  2.46782779E-02
  1.13030935E-07  2.64109787E-08  1.59073310E-02  1.97926927E-07  6.26368855E-09
  1.39703070E-08  6.77157380E-09 -3.73791156E-09  7.41737465E-09  2.13275463E-03
 -7.43380176E-04 -9.13489416E-03 -5.51622634E-02  6.93825800E-07  2.35293290E-07
  6.27511900E-02  1.87792276E-07 -4.51176116E-08  4.91090093E-03 -3.70642816E-03
 -3.70649494E-03  1.12158685E-02  1.27460332E-07  5.68541073E-08 -2.60403826E-09
  2.13712044E+00 -9.13486448E-03 -3.52169292E-02 -1.11911781E-01  2.20204708E-06
  5.15249355E-07  1.38076002E-01  9.89055087E-07 -6.34739817E-08  2.18866965E-02
 -9.12609222E-03 -9.12620660E-03  1.66034773E-02  2.58649221E-07  1.45214185E-07
 -1.13971264E-08  3.00860955E-01  7.75699866E-01 -5.51623210E-02 -1.11911973E-01
 -7.63337337E-02  2.51402543E-06  1.02857803E-06 -6.35810782E-02  8.99189134E-07
  4.42602394E-08 -5.93154771E-02 -3.77076035E-03 -3.77093838E-03 -6.49810412E-03
  1.73116788E-07 -9.46274417E-09 -1.48587705E-07  2.77653432E-01  5.32553458E-01
  4.39547521E-01  3.01052751E-07  1.24291464E-06  9.55605770E-07  9.74399161E-02
 -1.46483631E-07  1.27636199E-06  2.84518993E-02 -1.13376034E-07  2.37488684E-06
  3.92559181E-07  2.09065821E-07  3.88340186E-08 -9.08161203E-08  3.04972074E-02
  3.82659099E-08 -2.99538820E-07 -2.97979826E-07 -3.11526426E-06  7.02127673E-01
  4.99529785E-07  1.95297915E-06  2.22480742E-06  9.18451530E-08  9.74398981E-02
  1.75153956E-06 -8.76057116E-09  2.84519519E-02  3.37383064E-06 -1.16356850E-07
  5.01257600E-07  2.08271827E-08 -6.99057272E-07  1.79344899E-07  3.04970149E-02
 -4.61472490E-07 -1.62331871E-07 -4.98374898E-06 -2.46905767E-07  7.02127352E-01
 -6.27511943E-02 -1.38076045E-01  6.35810470E-02 -1.73488384E-06 -6.98310064E-08
 -4.40403872E-01 -1.90784201E-06 -2.54538179E-07 -2.16655216E-01  7.81797513E-03
  7.81767872E-03 -4.45453514E-02 -8.81881552E-09 -1.62669092E-07  5.97672537E-08
  6.55984469E-02  1.21545101E-01  2.71157330E-01  1.79868590E-06  2.11661434E-06
  5.23942713E-01 -6.88897956E-08  4.17846538E-07 -3.56191421E-07  2.84518759E-02
 -1.21412030E-07  1.53448611E-06 -2.76464456E-03 -5.83448127E-08  1.94685307E-06
  3.31790904E-07  1.98282193E-07  5.12536955E-08 -1.85829056E-07  2.04270875E-02
  4.13802345E-08 -1.32548993E-07 -3.87063130E-07 -1.15290572E-06  4.51656369E-01
 -5.56436334E-08  1.84134865E-06  3.17125266E-01  1.95114319E-07  1.09384519E-06
  1.12405482E-06  4.53615983E-08  2.84519619E-02  1.76226374E-06 -2.44325502E-08
 -2.76456383E-03  2.85661632E-06  4.90917011E-08  3.55034253E-07  3.97641272E-08
 -3.73248313E-07  8.85235546E-08  2.04269277E-02 -3.41642976E-07 -7.90383498E-07
 -2.57671551E-06  3.98043442E-08  4.51655979E-01  1.87220325E-06  1.14203293E-07
  3.17124874E-01 -4.91092375E-03 -2.18867530E-02  5.93154436E-02 -3.46406001E-06
 -9.52841187E-07 -2.16655302E-01 -2.91331018E-06 -6.25696763E-07 -1.09383802E-01
  4.40902493E-03  4.40887700E-03 -1.97605888E-02 -1.05084482E-08 -1.58746948E-07
  1.19475588E-07  3.64334498E-02  8.21972044E-02  1.42101368E-01  1.79705726E-06
  3.21581062E-06  2.50000873E-01  1.27358629E-06  2.64824921E-06  1.22744525E-01
 -3.70647780E-03 -9.12619616E-03 -3.77083168E-03  4.74472962E-07  1.25806763E-07
 -7.81795953E-03  3.73508720E-07  2.11165154E-07 -4.40901959E-03 -4.44636654E-05
 -4.44726257E-05 -9.66138425E-04  5.37027119E-09  1.89812477E-08 -2.65277271E-10
  1.50856770E-02  1.46380026E-02  1.55310353E-02  4.38608838E-07 -3.90390614E-07
  1.55661421E-02  5.42148730E-08 -1.72748762E-07  7.46671119E-03  6.98618707E-04
 -3.70644065E-03 -9.12609979E-03 -3.77084374E-03  2.36819956E-07 -5.94256604E-09
 -7.81772445E-03  2.54359566E-07  1.59772295E-08 -4.40889583E-03 -4.44665209E-05
 -4.44754789E-05 -9.66114802E-04  5.36689070E-09  1.73700622E-09  6.45651225E-10
  1.50855816E-02  1.46377893E-02  1.55307765E-02 -1.80609682E-07  4.34800427E-07
  1.55658076E-02 -1.40188284E-07  3.08513069E-08  7.46654766E-03  6.98606706E-04
  6.98594713E-04  1.12158848E-02  1.66035146E-02 -6.49808151E-03  5.57876728E-08
 -2.23756596E-07  4.45453683E-02 -3.55735185E-09 -1.32284134E-07  1.97605881E-02
 -9.66136036E-04 -9.66114434E-04  4.90714192E-03  1.00967270E-08  2.51326193E-08
 -1.09096430E-08  1.74110751E-02  2.17803910E-02 -2.20332434E-03  1.36387932E-07
 -4.70133668E-07 -4.28271695E-02  6.33734023E-08 -1.80463262E-07 -1.90928706E-02
 -7.94159003E-04 -7.94137389E-04  4.94899487E-03 -3.82507257E-08 -7.73595434E-08
 -9.45929299E-08  6.83847104E-08  3.09019977E-08  1.22411172E-07  4.87248545E-08
  1.44341634E-07  5.95932263E-08 -4.42476553E-09 -4.42228665E-09  7.95655998E-09
  4.83347326E-14  7.37542132E-09  1.84252697E-08  1.88662336E-08  3.89972444E-08
 -1.61435037E-09  5.58297535E-07  3.67985504E-07 -8.49889890E-08  1.01805487E-07
  1.76034336E-07 -4.46431098E-08 -9.48722927E-10 -9.50238841E-10  8.72730592E-09
  4.42374989E-12 -4.41009911E-08 -9.42974204E-08  8.10412077E-08 -3.04972206E-02
 -7.54472354E-08 -5.89012977E-08 -2.04270493E-02 -8.23212059E-08 -1.42801343E-08
 -1.69496626E-08  8.57452694E-09 -1.58137578E-08 -1.01164686E-08 -2.06835162E-03
 -1.51156113E-08  2.78071337E-08  4.18213268E-08  1.45767633E-07 -2.46784305E-02
 -1.87934706E-07  2.64572970E-07 -1.59074073E-02 -1.23068234E-07  2.34562425E-07
 -1.93776822E-08 -2.18506790E-09 -2.08925108E-08 -8.13060339E-09  2.13277794E-03
 -6.68316657E-08 -1.74125192E-07 -8.60690480E-08 -1.72394409E-07 -3.04970269E-02
 -1.62674764E-07 -1.01784056E-07 -2.04269852E-02 -2.06726806E-07 -5.64195137E-09
 -7.13314106E-09 -1.57750606E-08 -5.84295060E-09 -4.64014744E-09 -2.06833102E-03
  7.01760333E-08  1.62803686E-07  2.91865867E-07 -4.99479137E-08 -2.46783155E-02
  1.51874693E-07  2.66191614E-08 -1.59073987E-02  1.43115332E-08  2.28327484E-09
  5.46911251E-09  1.06351395E-09 -1.90361868E-08  1.60441766E-08  2.13276923E-03
Spin SCF Density                           R   N=         465
  4.68824979E-12  1.35922107E-11  3.98508448E-11  1.39269152E-11  3.60275698E-11
  4.94170538E-11 -6.52835293E-07 -1.92247769E-06 -2.06523524E-06  3.23971443E-01
 -8.79875302E-07 -2.46141060E-06 -2.70009677E-06 -1.25351864E-07  3.23970931E-01
  6.01469569E-12  1.90989932E-11  2.55415133E-12 -8.71794842E-07 -4.70053927E-07
  4.25549596E-11 -6.73789737E-07 -1.92978389E-06 -1.21319074E-06  1.97568507E-01
  3.87881626E-08 -1.66861954E-06  1.35221458E-01 -5.45171786E-07 -1.59999605E-06
 -1.29261116E-06 -5.81163668E-08  1.97568153E-01 -1.47434606E-06  4.67015088E-08
  1.35221190E-01  1.19331697E-11  3.26736554E-11  4.06655820E-11 -2.22473295E-06
 -2.51238407E-06 -1.80774840E-12 -1.98790862E-06 -2.06349884E-06  6.53634091E-12
  2.53458799E-12  7.61590357E-12 -3.19758109E-12  1.68998490E-07 -3.98522789E-08
  9.88210121E-12 -7.59003190E-08 -4.75150242E-08  4.04586390E-12  3.47063236E-12
  1.39926178E-12  4.35298759E-12  6.11488117E-12 -5.26391499E-07 -3.96825790E-07
 -3.93441356E-13 -3.18635740E-07 -2.72002481E-07  4.38209928E-12 -1.67878732E-13
  1.29607642E-12 -7.92057392E-14  4.39192085E-13 -6.19651184E-12  1.50601380E-07
  2.98020822E-07  1.23463219E-11 -5.35424699E-08  7.98837893E-09  8.72390701E-13
  1.83192659E-12 -6.53264714E-13  2.82288949E-12 -1.41559634E-12 -4.65305246E-12
 -4.91701920E-12  4.20724845E-07  4.68790023E-07 -2.68828567E-12  2.92620973E-07
  3.18803428E-07 -5.53516608E-12  2.49957335E-13 -1.18633141E-12  4.47313614E-13
  2.02093683E-12 -1.84729509E-09  2.61768315E-09  4.63412692E-08 -3.38627749E-03
  8.87711281E-08 -1.16868009E-08 -4.30991703E-03  5.52231627E-09  4.90813859E-09