 Entering Gaussian System, Link 0=g16
 Input=feco2-pbepbe.com
 Output=feco2-pbepbe.log
 Initial command:
 /scratch/SOFT/gaussian/g16_a03/g16/l1.exe "/home/mgimferrer/APOST3D.3.0/testset/reference/Gau-105279.inp" -scrdir="/home/mgimferrer/APOST3D.3.0/testset/reference/"
 Entering Link 1 = /scratch/SOFT/gaussian/g16_a03/g16/l1.exe PID=    105280.
  
 Copyright (c) 1988,1990,1992,1993,1995,1998,2003,2009,2016,
            Gaussian, Inc.  All Rights Reserved.
  
 This is part of the Gaussian(R) 16 program.  It is based on
 the Gaussian(R) 09 system (copyright 2009, Gaussian, Inc.),
 the Gaussian(R) 03 system (copyright 2003, Gaussian, Inc.),
 the Gaussian(R) 98 system (copyright 1998, Gaussian, Inc.),
 the Gaussian(R) 94 system (copyright 1995, Gaussian, Inc.),
 the Gaussian 92(TM) system (copyright 1992, Gaussian, Inc.),
 the Gaussian 90(TM) system (copyright 1990, Gaussian, Inc.),
 the Gaussian 88(TM) system (copyright 1988, Gaussian, Inc.),
 the Gaussian 86(TM) system (copyright 1986, Carnegie Mellon
 University), and the Gaussian 82(TM) system (copyright 1983,
 Carnegie Mellon University). Gaussian is a federally registered
 trademark of Gaussian, Inc.
  
 This software contains proprietary and confidential information,
 including trade secrets, belonging to Gaussian, Inc.
  
 This software is provided under written license and may be
 used, copied, transmitted, or stored only in accord with that
 written license.
  
 The following legend is applicable only to US Government
 contracts under FAR:
  
                    RESTRICTED RIGHTS LEGEND
  
 Use, reproduction and disclosure by the US Government is
 subject to restrictions as set forth in subparagraphs (a)
 and (c) of the Commercial Computer Software - Restricted
 Rights clause in FAR 52.227-19.
  
 Gaussian, Inc.
 340 Quinnipiac St., Bldg. 40, Wallingford CT 06492
  
  
 ---------------------------------------------------------------
 Warning -- This program may not be used in any manner that
 competes with the business of Gaussian, Inc. or will provide
 assistance to any competitor of Gaussian, Inc.  The licensee
 of this program is prohibited from giving any competitor of
 Gaussian, Inc. access to this program.  By using this program,
 the user acknowledges that Gaussian, Inc. is engaged in the
 business of creating and licensing software in the field of
 computational chemistry and represents and warrants to the
 licensee that it is not a competitor of Gaussian, Inc. and that
 it will not use this program in any manner prohibited above.
 ---------------------------------------------------------------
  

 Cite this work as:
 Gaussian 16, Revision A.03,
 M. J. Frisch, G. W. Trucks, H. B. Schlegel, G. E. Scuseria, 
 M. A. Robb, J. R. Cheeseman, G. Scalmani, V. Barone, 
 G. A. Petersson, H. Nakatsuji, X. Li, M. Caricato, A. V. Marenich, 
 J. Bloino, B. G. Janesko, R. Gomperts, B. Mennucci, H. P. Hratchian, 
 J. V. Ortiz, A. F. Izmaylov, J. L. Sonnenberg, D. Williams-Young, 
 F. Ding, F. Lipparini, F. Egidi, J. Goings, B. Peng, A. Petrone, 
 T. Henderson, D. Ranasinghe, V. G. Zakrzewski, J. Gao, N. Rega, 
 G. Zheng, W. Liang, M. Hada, M. Ehara, K. Toyota, R. Fukuda, 
 J. Hasegawa, M. Ishida, T. Nakajima, Y. Honda, O. Kitao, H. Nakai, 
 T. Vreven, K. Throssell, J. A. Montgomery, Jr., J. E. Peralta, 
 F. Ogliaro, M. J. Bearpark, J. J. Heyd, E. N. Brothers, K. N. Kudin, 
 V. N. Staroverov, T. A. Keith, R. Kobayashi, J. Normand, 
 K. Raghavachari, A. P. Rendell, J. C. Burant, S. S. Iyengar, 
 J. Tomasi, M. Cossi, J. M. Millam, M. Klene, C. Adamo, R. Cammi, 
 J. W. Ochterski, R. L. Martin, K. Morokuma, O. Farkas, 
 J. B. Foresman, and D. J. Fox, Gaussian, Inc., Wallingford CT, 2016.
 
 ******************************************
 Gaussian 16:  ES64L-G16RevA.03 25-Dec-2016
                31-Jan-2019 
 ******************************************
 %nproc=4
 Will use up to    4 processors via shared memory.
 %chk=feco2-pbepbe.chk
 %mem=4000mb
 ---------------------------------------------------------
 #p pbepbe/SVP pop=full scf=xqc 6d 10f gfinput iop(3/33=1)
 ---------------------------------------------------------
 1/38=1,172=1/1;
 2/12=2,17=6,18=5,40=1/2;
 3/5=18,7=101,8=22,11=2,24=10,25=1,30=1,33=1,74=1009/1,2,3;
 4//1;
 5/5=2,8=3,13=1,38=5/2,8;
 6/7=3,28=1/1;
 99/5=1,9=1/99;
 Leave Link    1 at Thu Jan 31 12:38:06 2019, MaxMem=   524288000 cpu:               0.3 elap:               0.1
 (Enter /scratch/SOFT/gaussian/g16_a03/g16/l101.exe)
 ------
 dsfdsf
 ------
 Symbolic Z-matrix:
 Charge =  2 Multiplicity = 1
 26                    0.        0.        0. 
 6                     1.33785  -1.35187  -0.00523 
 6                    -1.34488   1.34488   0. 
 8                     2.45651  -2.48225  -0.0096 
 8                    -2.46942   2.46942   0. 
 
 ITRead=  0  0  0  0  0
 MicOpt= -1 -1 -1 -1 -1
 NAtoms=      5 NQM=        5 NQMF=       0 NMMI=      0 NMMIF=      0
                NMic=       0 NMicF=      0.
                    Isotopes and Nuclear Properties:
 (Nuclear quadrupole moments (NQMom) in fm**2, nuclear magnetic moments (NMagM)
  in nuclear magnetons)

  Atom         1           2           3           4           5
 IAtWgt=          56          12          12          16          16
 AtmWgt=  55.9349393  12.0000000  12.0000000  15.9949146  15.9949146
 NucSpn=           0           0           0           0           0
 AtZEff=  -0.0000000  -0.0000000  -0.0000000  -0.0000000  -0.0000000
 NQMom=    0.0000000   0.0000000   0.0000000   0.0000000   0.0000000
 NMagM=    0.0000000   0.0000000   0.0000000   0.0000000   0.0000000
 AtZNuc=  26.0000000   6.0000000   6.0000000   8.0000000   8.0000000
 Leave Link  101 at Thu Jan 31 12:38:06 2019, MaxMem=   524288000 cpu:               0.6 elap:               0.1
 (Enter /scratch/SOFT/gaussian/g16_a03/g16/l202.exe)
                          Input orientation:                          
 ---------------------------------------------------------------------
 Center     Atomic      Atomic             Coordinates (Angstroms)
 Number     Number       Type             X           Y           Z
 ---------------------------------------------------------------------
      1         26           0        0.000000    0.000000    0.000000
      2          6           0        1.337846   -1.351865   -0.005226
      3          6           0       -1.344879    1.344879    0.000000
      4          8           0        2.456508   -2.482250   -0.009595
      5          8           0       -2.469422    2.469422    0.000000
 ---------------------------------------------------------------------
                    Distance matrix (angstroms):
                    1          2          3          4          5
     1  Fe   0.000000
     2  C    1.901946   0.000000
     3  C    1.901946   3.803875   0.000000
     4  O    3.492290   1.590344   5.394214   0.000000
     5  O    3.492290   5.394214   1.590344   6.984550   0.000000
 Stoichiometry    C2FeO2(2+)
 Framework group  C2V[C2(Fe),SGV(C2O2)]
 Deg. of freedom     4
 Full point group                 C2V     NOp   4
 Largest Abelian subgroup         C2V     NOp   4
 Largest concise Abelian subgroup C2      NOp   2
                         Standard orientation:                         
 ---------------------------------------------------------------------
 Center     Atomic      Atomic             Coordinates (Angstroms)
 Number     Number       Type             X           Y           Z
 ---------------------------------------------------------------------
      1         26           0        0.000000    0.000000    0.004293
      2          6           0       -0.000000    1.901938   -0.001310
      3          6           0        0.000000   -1.901938   -0.001310
      4          8           0       -0.000000    3.492275   -0.005995
      5          8           0        0.000000   -3.492275   -0.005995
 ---------------------------------------------------------------------
 Rotational constants (GHZ):      227719.1540526           1.0595742           1.0595693
 Leave Link  202 at Thu Jan 31 12:38:06 2019, MaxMem=   524288000 cpu:               0.0 elap:               0.0
 (Enter /scratch/SOFT/gaussian/g16_a03/g16/l301.exe)
 Standard basis: SVP (6D, 10F)
                         Coordinates in L301:                         
 ---------------------------------------------------------------------
 Center     Atomic      Atomic             Coordinates (Angstroms)
 Number     Number       Type             X           Y           Z
 ---------------------------------------------------------------------
      1         26           0        0.000000    0.000000    0.004293
      2          6           0       -0.000000    1.901938   -0.001310
      3          6           0        0.000000   -1.901938   -0.001310
      4          8           0       -0.000000    3.492275   -0.005995
      5          8           0        0.000000   -3.492275   -0.005995
 ---------------------------------------------------------------------
 FixB: optimizing general contractions.
 Ernie: Thresh=  0.10000D-02 Tol=  0.10000D-05 Strict=F.
 IA=     1 ShT= 0 ShC= 0 NL=   5 NS=   2.
 IA=     1 L=0 SC=0 ISt=    1 NBk=    3 NP=   12 IndPr=    0.
 DoElim1:  L=0 select primitive    1 from    2 using    1 C= 1.43D-03
 DoElim1:  L=0 select primitive    1 from    3 using    1 C= 1.43D-03
 DoElim1:  L=0 select primitive    6 from    3 using    2 C=-1.10D-01
 DoElim2:  L=0 select primitive   11 from    2 using    3 C= 7.22D-01
 DoElim2:  L=0 select primitive   11 from    1 using    3 C= 7.22D-01
 DoElim2:  L=0 select primitive    8 from    1 using    2 C= 6.44D-01
 Delete L=0 primitive   10 from    3 C=  0.00D+00.
 Delete L=0 primitive    8 from    3 C=  0.00D+00.
 Delete L=0 primitive    7 from    3 C=  0.00D+00.
 Delete L=0 primitive    6 from    3 C=  0.00D+00.
 Delete L=0 primitive    5 from    3 C=  0.00D+00.
 Delete L=0 primitive    4 from    3 C=  0.00D+00.
 Delete L=0 primitive    3 from    3 C=  0.00D+00.
 Delete L=0 primitive    2 from    3 C=  0.00D+00.
 Delete L=0 primitive    1 from    3 C=  0.00D+00.
 Delete L=0 primitive   12 from    2 C=  0.00D+00.
 Delete L=0 primitive   11 from    2 C=  0.00D+00.
 Delete L=0 primitive    9 from    2 C=  0.00D+00.
 Delete L=0 primitive    7 from    2 C=  0.00D+00.
 Delete L=0 primitive    5 from    2 C=  0.00D+00.
 Delete L=0 primitive    4 from    2 C=  0.00D+00.
 Delete L=0 primitive    3 from    2 C=  0.00D+00.
 Delete L=0 primitive    2 from    2 C=  0.00D+00.
 Delete L=0 primitive    1 from    2 C=  0.00D+00.
 Delete L=0 primitive   12 from    1 C=  0.00D+00.
 Delete L=0 primitive   11 from    1 C=  0.00D+00.
 Delete L=0 primitive   10 from    1 C=  0.00D+00.
 Delete L=0 primitive    9 from    1 C=  0.00D+00.
 Delete L=0 primitive    8 from    1 C=  0.00D+00.
 Delete L=0 primitive    6 from    1 C=  0.00D+00.
 IA=     1 L=0 SC=0 ISt=    0 NBk=    0 NP=    0 IndPr=   12.
 IA=     1 ShT= 1 ShC= 1 NL=   3 NS=   1.
 IA=     1 L=1 SC=1 ISt=    1 NBk=    2 NP=    8 IndPr=    0.
 DoElim1:  L=1 select primitive    1 from    2 using    1 C= 9.43D-03
 DoElim2:  L=1 select primitive    7 from    1 using    2 C= 5.68D-01
 Delete L=1 primitive    5 from    2 C=  0.00D+00.
 Delete L=1 primitive    4 from    2 C=  0.00D+00.
 Delete L=1 primitive    3 from    2 C=  0.00D+00.
 Delete L=1 primitive    2 from    2 C=  0.00D+00.
 Delete L=1 primitive    1 from    2 C=  0.00D+00.
 Delete L=1 primitive    8 from    1 C=  0.00D+00.
 Delete L=1 primitive    7 from    1 C=  0.00D+00.
 Delete L=1 primitive    6 from    1 C=  0.00D+00.
 IA=     1 L=1 SC=1 ISt=    0 NBk=    0 NP=    0 IndPr=    8.
 IA=     1 ShT= 2 ShC= 2 NL=   2 NS=   1.
 IA=     1 L=2 SC=2 ISt=    0 NBk=    0 NP=    0 IndPr=    0.
 IA=     2 ShT= 0 ShC= 0 NL=   3 NS=   2.
 IA=     2 L=0 SC=0 ISt=    0 NBk=    0 NP=    0 IndPr=    0.
 IA=     2 ShT= 1 ShC= 1 NL=   2 NS=   1.
 IA=     2 L=1 SC=1 ISt=    0 NBk=    0 NP=    0 IndPr=    0.
 IA=     2 ShT= 2 ShC= 2 NL=   1 NS=   1.
 IA=     2 L=2 SC=2 ISt=    0 NBk=    0 NP=    0 IndPr=    0.
 IA=     3 ShT= 0 ShC= 0 NL=   3 NS=   2.
 IA=     3 L=0 SC=0 ISt=    0 NBk=    0 NP=    0 IndPr=    0.
 IA=     3 ShT= 1 ShC= 1 NL=   2 NS=   1.
 IA=     3 L=1 SC=1 ISt=    0 NBk=    0 NP=    0 IndPr=    0.
 IA=     3 ShT= 2 ShC= 2 NL=   1 NS=   1.
 IA=     3 L=2 SC=2 ISt=    0 NBk=    0 NP=    0 IndPr=    0.
 IA=     4 ShT= 0 ShC= 0 NL=   3 NS=   2.
 IA=     4 L=0 SC=0 ISt=    0 NBk=    0 NP=    0 IndPr=    0.
 IA=     4 ShT= 1 ShC= 1 NL=   2 NS=   1.
 IA=     4 L=1 SC=1 ISt=    0 NBk=    0 NP=    0 IndPr=    0.
 IA=     4 ShT= 2 ShC= 2 NL=   1 NS=   1.
 IA=     4 L=2 SC=2 ISt=    0 NBk=    0 NP=    0 IndPr=    0.
 IA=     5 ShT= 0 ShC= 0 NL=   3 NS=   2.
 IA=     5 L=0 SC=0 ISt=    0 NBk=    0 NP=    0 IndPr=    0.
 IA=     5 ShT= 1 ShC= 1 NL=   2 NS=   1.
 IA=     5 L=1 SC=1 ISt=    0 NBk=    0 NP=    0 IndPr=    0.
 IA=     5 ShT= 2 ShC= 2 NL=   1 NS=   1.
 IA=     5 L=2 SC=2 ISt=    0 NBk=    0 NP=    0 IndPr=    0.
 AO basis set in the form of general basis input (Overlap normalization):
      1 0
 S   6 1.00       0.000000000000
      0.6092364064D+05  0.1755229960D-02
      0.9147889398D+04  0.1344902326D-01
      0.2081350593D+04  0.6667886954D-01
      0.5875597707D+03  0.2317634858D+00
      0.1910904399D+03  0.4694555039D+00
      0.6573273011D+02  0.3596824946D+00
 S   3 1.00       0.000000000000
      0.1272589193D+03 -0.1072343198D+00
      0.1483091301D+02  0.6297161641D+00
      0.6065330740D+01  0.4447231786D+00
 S   3 1.00       0.000000000000
      0.1044994371D+02 -0.2169428927D+00
      0.1724522800D+01  0.6945786733D+00
      0.7177217700D+00  0.4329830902D+00
 S   1 1.00       0.000000000000
      0.9144983000D-01  0.1000000000D+01
 S   1 1.00       0.000000000000
      0.3370669000D-01  0.1000000000D+01
 P   5 1.00       0.000000000000
      0.7734375100D+03  0.9144049604D-02
      0.1821514971D+03  0.6788757667D-01
      0.5754727276D+02  0.2616797892D+00
      0.2061498894D+02  0.5108804013D+00
      0.7634855790D+01  0.3323547559D+00
 P   3 1.00       0.000000000000
      0.3871932800D+01  0.3319385907D+00
      0.1492472410D+01  0.5553666548D+00
      0.5606128500D+00  0.2310603433D+00
 P   1 1.00       0.000000000000
      0.1349150000D+00  0.1000000000D+01
 D   4 1.00       0.000000000000
      0.3896813342D+02  0.3333593348D-01
      0.1080006708D+02  0.1776621261D+00
      0.3613645800D+01  0.4412817778D+00
      0.1212996790D+01  0.5708920091D+00
 D   1 1.00       0.000000000000
      0.3652439300D+00  0.1000000000D+01
 ****
      2 0
 S   5 1.00       0.000000000000
      0.1238401694D+04  0.5517361802D-02
      0.1862900499D+03  0.4108882934D-01
      0.4225117635D+02  0.1822538223D+00
      0.1167655793D+02  0.4682845967D+00
      0.3593050650D+01  0.4457581700D+00
 S   1 1.00       0.000000000000
      0.4024514700D+00  0.1000000000D+01
 S   1 1.00       0.000000000000
      0.1309018300D+00  0.1000000000D+01
 P   3 1.00       0.000000000000
      0.9468097060D+01  0.5688832962D-01
      0.2010354510D+01  0.3129405926D+00
      0.5477100500D+00  0.7606501657D+00
 P   1 1.00       0.000000000000
      0.1526861400D+00  0.1000000000D+01
 D   1 1.00       0.000000000000
      0.8000000000D+00  0.1000000000D+01
 ****
      3 0
 S   5 1.00       0.000000000000
      0.1238401694D+04  0.5517361802D-02
      0.1862900499D+03  0.4108882934D-01
      0.4225117635D+02  0.1822538223D+00
      0.1167655793D+02  0.4682845967D+00
      0.3593050650D+01  0.4457581700D+00
 S   1 1.00       0.000000000000
      0.4024514700D+00  0.1000000000D+01
 S   1 1.00       0.000000000000
      0.1309018300D+00  0.1000000000D+01
 P   3 1.00       0.000000000000
      0.9468097060D+01  0.5688832962D-01
      0.2010354510D+01  0.3129405926D+00
      0.5477100500D+00  0.7606501657D+00
 P   1 1.00       0.000000000000
      0.1526861400D+00  0.1000000000D+01
 D   1 1.00       0.000000000000
      0.8000000000D+00  0.1000000000D+01
 ****
      4 0
 S   5 1.00       0.000000000000
      0.2266176779D+04 -0.5389349396D-02
      0.3408701019D+03 -0.4023472220D-01
      0.7736313517D+02 -0.1800818424D+00
      0.2147964494D+02 -0.4682885774D+00
      0.6658943310D+01 -0.4469261703D+00
 S   1 1.00       0.000000000000
      0.8097597600D+00  0.1000000000D+01
 S   1 1.00       0.000000000000
      0.2553077200D+00  0.1000000000D+01
 P   3 1.00       0.000000000000
      0.1772150432D+02  0.6263024412D-01
      0.3863550540D+01  0.3333113880D+00
      0.1048092090D+01  0.7414863817D+00
 P   1 1.00       0.000000000000
      0.2764154400D+00  0.1000000000D+01
 D   1 1.00       0.000000000000
      0.1200000000D+01  0.1000000000D+01
 ****
      5 0
 S   5 1.00       0.000000000000
      0.2266176779D+04 -0.5389349396D-02
      0.3408701019D+03 -0.4023472220D-01
      0.7736313517D+02 -0.1800818424D+00
      0.2147964494D+02 -0.4682885774D+00
      0.6658943310D+01 -0.4469261703D+00
 S   1 1.00       0.000000000000
      0.8097597600D+00  0.1000000000D+01
 S   1 1.00       0.000000000000
      0.2553077200D+00  0.1000000000D+01
 P   3 1.00       0.000000000000
      0.1772150432D+02  0.6263024412D-01
      0.3863550540D+01  0.3333113880D+00
      0.1048092090D+01  0.7414863817D+00
 P   1 1.00       0.000000000000
      0.2764154400D+00  0.1000000000D+01
 D   1 1.00       0.000000000000
      0.1200000000D+01  0.1000000000D+01
 ****

 LdAtmC:  AtmChg=    26.000000     6.000000     6.000000     8.000000     8.000000
 AtZEff=    -25.2200000     -3.6000000     -3.6000000     -5.6000000     -5.6000000
 NEqShl: 
              1            2            3            4
     1            1            1            1            1
     2            2            2            2            2
     3            3            3            3            3
     4            4            4            4            4
     5            5            5            5            5
     6            6            6            6            6
     7            7            7            7            7
     8            8            8            8            8
     9            9            9            9            9
    10           10           10           10           10
    11           11           17           11           17
    12           12           18           12           18
    13           13           19           13           19
    14           14           20           14           20
    15           15           21           15           21
    16           16           22           16           22
    17           17           11           17           11
    18           18           12           18           12
    19           19           13           19           13
    20           20           14           20           14
    21           21           15           21           15
    22           22           16           22           16
    23           23           29           23           29
    24           24           30           24           30
    25           25           31           25           31
    26           26           32           26           32
    27           27           33           27           33
    28           28           34           28           34
    29           29           23           29           23
    30           30           24           30           24
    31           31           25           31           25
    32           32           26           32           26
    33           33           27           33           27
    34           34           28           34           28
 NEqBas: 
              1            2            3            4
     1            1            1            1            1
     2            2            2            2            2
     3            3            3            3            3
     4            4            4            4            4
     5            5            5            5            5
     6            6           -6           -6            6
     7            7           -7            7           -7
     8            8            8            8            8
     9            9           -9           -9            9
    10           10          -10           10          -10
    11           11           11           11           11
    12           12          -12          -12           12
    13           13          -13           13          -13
    14           14           14           14           14
    15           15           15           15           15
    16           16           16           16           16
    17           17           17           17           17
    18           18           18          -18          -18
    19           19          -19          -19           19
    20           20          -20           20          -20
    21           21           21           21           21
    22           22           22           22           22
    23           23           23           23           23
    24           24           24          -24          -24
    25           25          -25          -25           25
    26           26          -26           26          -26
    27           27           42           27           42
    28           28           43           28           43
    29           29           44           29           44
    30           30          -45          -30           45
    31           31          -46           31          -46
    32           32           47           32           47
    33           33          -48          -33           48
    34           34          -49           34          -49
    35           35           50           35           50
    36           36           51           36           51
    37           37           52           37           52
    38           38           53           38           53
    39           39           54          -39          -54
    40           40          -55          -40           55
    41           41          -56           41          -56
    42           42           27           42           27
    43           43           28           43           28
    44           44           29           44           29
    45           45          -30          -45           30
    46           46          -31           46          -31
    47           47           32           47           32
    48           48          -33          -48           33
    49           49          -34           49          -34
    50           50           35           50           35
    51           51           36           51           36
    52           52           37           52           37
    53           53           38           53           38
    54           54           39          -54          -39
    55           55          -40          -55           40
    56           56          -41           56          -41
    57           57           72           57           72
    58           58           73           58           73
    59           59           74           59           74
    60           60          -75          -60           75
    61           61          -76           61          -76
    62           62           77           62           77
    63           63          -78          -63           78
    64           64          -79           64          -79
    65           65           80           65           80
    66           66           81           66           81
    67           67           82           67           82
    68           68           83           68           83
    69           69           84          -69          -84
    70           70          -85          -70           85
    71           71          -86           71          -86
    72           72           57           72           57
    73           73           58           73           58
    74           74           59           74           59
    75           75          -60          -75           60
    76           76          -61           76          -61
    77           77           62           77           62
    78           78          -63          -78           63
    79           79          -64           79          -64
    80           80           65           80           65
    81           81           66           81           66
    82           82           67           82           67
    83           83           68           83           68
    84           84           69          -84          -69
    85           85          -70          -85           70
    86           86          -71           86          -71
 There are    36 symmetry adapted cartesian basis functions of A1  symmetry.
   1         1   1   1   1
   2         2   2   2   2
   3         3   3   3   3
   4         4   4   4   4
   5         5   5   5   5
   6         8   8   8   8
   7        11  11  11  11
   8        14  14  14  14
   9        15  15  15  15
  10        16  16  16  16
  11        17  17  17  17
  12        21  21  21  21
  13        22  22  22  22
  14        23  23  23  23
  15        27  42  42  27
  16        28  43  43  28
  17        29  44  44  29
  18        31 -46 -46  31
  19        32  47  47  32
  20        34 -49 -49  34
  21        35  50  50  35
  22        36  51  51  36
  23        37  52  52  37
  24        38  53  53  38
  25        41 -56 -56  41
  26        57  72  72  57
  27        58  73  73  58
  28        59  74  74  59
  29        61 -76 -76  61
  30        62  77  77  62
  31        64 -79 -79  64
  32        65  80  80  65
  33        66  81  81  66
  34        67  82  82  67
  35        68  83  83  68
  36        71 -86 -86  71
 There are    10 symmetry adapted cartesian basis functions of A2  symmetry.
  37        18  18  18  18
  38        24  24  24  24
  39        30 -45 -45  30
  40        33 -48 -48  33
  41        39  54  54  39
  42        40 -55 -55  40
  43        60 -75 -75  60
  44        63 -78 -78  63
  45        69  84  84  69
  46        70 -85 -85  70
 There are    13 symmetry adapted cartesian basis functions of B1  symmetry.
  47         6   6   6   6
  48         9   9   9   9
  49        12  12  12  12
  50        19  19  19  19
  51        25  25  25  25
  52        30  45  45  30
  53        33  48  48  33
  54        39 -54 -54  39
  55        40  55  55  40
  56        60  75  75  60
  57        63  78  78  63
  58        69 -84 -84  69
  59        70  85  85  70
 There are    27 symmetry adapted cartesian basis functions of B2  symmetry.
  60         7   7   7   7
  61        10  10  10  10
  62        13  13  13  13
  63        20  20  20  20
  64        26  26  26  26
  65        27 -42 -42  27
  66        28 -43 -43  28
  67        29 -44 -44  29
  68        31  46  46  31
  69        32 -47 -47  32
  70        34  49  49  34
  71        35 -50 -50  35
  72        36 -51 -51  36
  73        37 -52 -52  37
  74        38 -53 -53  38
  75        41  56  56  41
  76        57 -72 -72  57
  77        58 -73 -73  58
  78        59 -74 -74  59
  79        61  76  76  61
  80        62 -77 -77  62
  81        64  79  79  64
  82        65 -80 -80  65
  83        66 -81 -81  66
  84        67 -82 -82  67
  85        68 -83 -83  68
  86        71  86  86  71
 Order= 1 2 4 3
 Reordered character table:
              1            2            3            4            5
     1            1            1            1            1            1
     2            2            1            1           -1           -1
     3            4            1           -1           -1            1
     4            3            1           -1            1           -1
 NEqShl: 
              1            2            3            4
     1            1            1            1            1
     2            2            2            2            2
     3            3            3            3            3
     4            4            4            4            4
     5            5            5            5            5
     6            6            6            6            6
     7            7            7            7            7
     8            8            8            8            8
     9            9            9            9            9
    10           10           10           10           10
    11           11           17           11           17
    12           12           18           12           18
    13           13           19           13           19
    14           14           20           14           20
    15           15           21           15           21
    16           16           22           16           22
    17           17           11           17           11
    18           18           12           18           12
    19           19           13           19           13
    20           20           14           20           14
    21           21           15           21           15
    22           22           16           22           16
    23           23           29           23           29
    24           24           30           24           30
    25           25           31           25           31
    26           26           32           26           32
    27           27           33           27           33
    28           28           34           28           34
    29           29           23           29           23
    30           30           24           30           24
    31           31           25           31           25
    32           32           26           32           26
    33           33           27           33           27
    34           34           28           34           28
 NEqBas: 
              1            2            3            4
     1            1            1            1            1
     2            2            2            2            2
     3            3            3            3            3
     4            4            4            4            4
     5            5            5            5            5
     6            6           -6           -6            6
     7            7           -7            7           -7
     8            8            8            8            8
     9            9           -9           -9            9
    10           10          -10           10          -10
    11           11           11           11           11
    12           12          -12          -12           12
    13           13          -13           13          -13
    14           14           14           14           14
    15           15           15           15           15
    16           16           16           16           16
    17           17           17           17           17
    18           18           18          -18          -18
    19           19          -19          -19           19
    20           20          -20           20          -20
    21           21           21           21           21
    22           22           22           22           22
    23           23           23           23           23
    24           24           24          -24          -24
    25           25          -25          -25           25
    26           26          -26           26          -26
    27           27           42           27           42
    28           28           43           28           43
    29           29           44           29           44
    30           30          -45          -30           45
    31           31          -46           31          -46
    32           32           47           32           47
    33           33          -48          -33           48
    34           34          -49           34          -49
    35           35           50           35           50
    36           36           51           36           51
    37           37           52           37           52
    38           38           53           38           53
    39           39           54          -39          -54
    40           40          -55          -40           55
    41           41          -56           41          -56
    42           42           27           42           27
    43           43           28           43           28
    44           44           29           44           29
    45           45          -30          -45           30
    46           46          -31           46          -31
    47           47           32           47           32
    48           48          -33          -48           33
    49           49          -34           49          -34
    50           50           35           50           35
    51           51           36           51           36
    52           52           37           52           37
    53           53           38           53           38
    54           54           39          -54          -39
    55           55          -40          -55           40
    56           56          -41           56          -41
    57           57           72           57           72
    58           58           73           58           73
    59           59           74           59           74
    60           60          -75          -60           75
    61           61          -76           61          -76
    62           62           77           62           77
    63           63          -78          -63           78
    64           64          -79           64          -79
    65           65           80           65           80
    66           66           81           66           81
    67           67           82           67           82
    68           68           83           68           83
    69           69           84          -69          -84
    70           70          -85          -70           85
    71           71          -86           71          -86
    72           72           57           72           57
    73           73           58           73           58
    74           74           59           74           59
    75           75          -60          -75           60
    76           76          -61           76          -61
    77           77           62           77           62
    78           78          -63          -78           63
    79           79          -64           79          -64
    80           80           65           80           65
    81           81           66           81           66
    82           82           67           82           67
    83           83           68           83           68
    84           84           69          -84          -69
    85           85          -70          -85           70
    86           86          -71           86          -71
 There are    36 symmetry adapted basis functions of A1  symmetry.
   1         1   1   1   1
   2         2   2   2   2
   3         3   3   3   3
   4         4   4   4   4
   5         5   5   5   5
   6         8   8   8   8
   7        11  11  11  11
   8        14  14  14  14
   9        15  15  15  15
  10        16  16  16  16
  11        17  17  17  17
  12        21  21  21  21
  13        22  22  22  22
  14        23  23  23  23
  15        27  42  42  27
  16        28  43  43  28
  17        29  44  44  29
  18        31 -46 -46  31
  19        32  47  47  32
  20        34 -49 -49  34
  21        35  50  50  35
  22        36  51  51  36
  23        37  52  52  37
  24        38  53  53  38
  25        41 -56 -56  41
  26        57  72  72  57
  27        58  73  73  58
  28        59  74  74  59
  29        61 -76 -76  61
  30        62  77  77  62
  31        64 -79 -79  64
  32        65  80  80  65
  33        66  81  81  66
  34        67  82  82  67
  35        68  83  83  68
  36        71 -86 -86  71
 There are    10 symmetry adapted basis functions of A2  symmetry.
  37        18  18  18  18
  38        24  24  24  24
  39        30 -45 -45  30
  40        33 -48 -48  33
  41        39  54  54  39
  42        40 -55 -55  40
  43        60 -75 -75  60
  44        63 -78 -78  63
  45        69  84  84  69
  46        70 -85 -85  70
 There are    13 symmetry adapted basis functions of B1  symmetry.
  47         6   6   6   6
  48         9   9   9   9
  49        12  12  12  12
  50        19  19  19  19
  51        25  25  25  25
  52        30  45  45  30
  53        33  48  48  33
  54        39 -54 -54  39
  55        40  55  55  40
  56        60  75  75  60
  57        63  78  78  63
  58        69 -84 -84  69
  59        70  85  85  70
 There are    27 symmetry adapted basis functions of B2  symmetry.
  60         7   7   7   7
  61        10  10  10  10
  62        13  13  13  13
  63        20  20  20  20
  64        26  26  26  26
  65        27 -42 -42  27
  66        28 -43 -43  28
  67        29 -44 -44  29
  68        31  46  46  31
  69        32 -47 -47  32
  70        34  49  49  34
  71        35 -50 -50  35
  72        36 -51 -51  36
  73        37 -52 -52  37
  74        38 -53 -53  38
  75        41  56  56  41
  76        57 -72 -72  57
  77        58 -73 -73  58
  78        59 -74 -74  59
  79        61  76  76  61
  80        62 -77 -77  62
  81        64  79  79  64
  82        65 -80 -80  65
  83        66 -81 -81  66
  84        67 -82 -82  67
  85        68 -83 -83  68
  86        71  86  86  71
 Order= 1 2 4 3
 Reordered character table:
              1            2            3            4            5
     1            1            1            1            1            1
     2            2            1            1           -1           -1
     3            4            1           -1           -1            1
     4            3            1           -1            1           -1
    86 basis functions,   171 primitive gaussians,    86 cartesian basis functions
    26 alpha electrons       26 beta electrons
       nuclear repulsion energy       201.0610546721 Hartrees.
 IS=     1 IAt=     1 ISR=     1 T=0 IP=      1 IndIP=      1 IndIPD=      0 C=  4.851025D+00  0.000000D+00                             NZ=T
 IS=     1 IAt=     1 ISR=     1 T=0 IP=      2 IndIP=      2 IndIPD=      1 C=  8.965851D+00  0.000000D+00                             NZ=T
 IS=     1 IAt=     1 ISR=     1 T=0 IP=      3 IndIP=      3 IndIPD=      2 C=  1.464392D+01  0.000000D+00                             NZ=T
 IS=     1 IAt=     1 ISR=     1 T=0 IP=      4 IndIP=      4 IndIPD=      3 C=  1.971261D+01  0.000000D+00                             NZ=T
 IS=     1 IAt=     1 ISR=     1 T=0 IP=      5 IndIP=      5 IndIPD=      4 C=  1.719625D+01  0.000000D+00                             NZ=T
 IS=     1 IAt=     1 ISR=     1 T=0 IP=      6 IndIP=      6 IndIPD=      5 C=  5.917873D+00  0.000000D+00                             NZ=T
 IS=     2 IAt=     1 ISR=     2 T=0 IP=      1 IndIP=      7 IndIPD=      0 C= -2.895743D+00  0.000000D+00                             NZ=T
 IS=     2 IAt=     1 ISR=     2 T=0 IP=      2 IndIP=      8 IndIPD=      1 C=  3.391805D+00  0.000000D+00                             NZ=T
 IS=     2 IAt=     1 ISR=     2 T=0 IP=      3 IndIP=      9 IndIPD=      2 C=  1.225013D+00  0.000000D+00                             NZ=T
 IS=     3 IAt=     1 ISR=     3 T=0 IP=      1 IndIP=     10 IndIPD=      0 C= -8.986508D-01  0.000000D+00                             NZ=T
 IS=     3 IAt=     1 ISR=     3 T=0 IP=      2 IndIP=     11 IndIPD=      1 C=  7.449605D-01  0.000000D+00                             NZ=T
 IS=     3 IAt=     1 ISR=     3 T=0 IP=      3 IndIP=     12 IndIPD=      2 C=  2.406291D-01  0.000000D+00                             NZ=T
 IS=     4 IAt=     1 ISR=     4 T=0 IP=      1 IndIP=     13 IndIPD=      0 C=  1.185215D-01  0.000000D+00                             NZ=T
 IS=     5 IAt=     1 ISR=     5 T=0 IP=      1 IndIP=     14 IndIPD=      0 C=  5.606569D-02  0.000000D+00                             NZ=T
 IS=     6 IAt=     1 ISR=     6 T=1 IP=      1 IndIP=     15 IndIPD=      0 C=  0.000000D+00  5.316309D+01                             NZ=T
 IS=     6 IAt=     1 ISR=     6 T=1 IP=      2 IndIP=     16 IndIPD=      1 C=  0.000000D+00  6.475470D+01                             NZ=T
 IS=     6 IAt=     1 ISR=     6 T=1 IP=      3 IndIP=     17 IndIPD=      2 C=  0.000000D+00  5.912092D+01                             NZ=T
 IS=     6 IAt=     1 ISR=     6 T=1 IP=      4 IndIP=     18 IndIPD=      3 C=  0.000000D+00  3.198808D+01                             NZ=T
 IS=     6 IAt=     1 ISR=     6 T=1 IP=      5 IndIP=     19 IndIPD=      4 C=  0.000000D+00  6.012333D+00                             NZ=T
 IS=     7 IAt=     1 ISR=     7 T=1 IP=      1 IndIP=     20 IndIPD=      0 C=  0.000000D+00  2.569849D+00                             NZ=T
 IS=     7 IAt=     1 ISR=     7 T=1 IP=      2 IndIP=     21 IndIPD=      1 C=  0.000000D+00  1.305879D+00                             NZ=T
 IS=     7 IAt=     1 ISR=     7 T=1 IP=      3 IndIP=     22 IndIPD=      2 C=  0.000000D+00  1.597697D-01                             NZ=T
 IS=     8 IAt=     1 ISR=     8 T=1 IP=      1 IndIP=     23 IndIPD=      0 C=  0.000000D+00  1.165508D-01                             NZ=T
 IS=     9 IAt=     1 ISR=     9 T=2 IP=      1 IndIP=     24 IndIPD=      1 C=  0.000000D+00  0.000000D+00  3.334755D+01  0.000000D+00 NZ=T
 IS=     9 IAt=     1 ISR=     9 T=2 IP=      2 IndIP=     25 IndIPD=      2 C=  0.000000D+00  0.000000D+00  1.881484D+01  0.000000D+00 NZ=T
 IS=     9 IAt=     1 ISR=     9 T=2 IP=      3 IndIP=     26 IndIPD=      3 C=  0.000000D+00  0.000000D+00  6.879078D+00  0.000000D+00 NZ=T
 IS=     9 IAt=     1 ISR=     9 T=2 IP=      4 IndIP=     27 IndIPD=      4 C=  0.000000D+00  0.000000D+00  1.317400D+00  0.000000D+00 NZ=T
 IS=    10 IAt=     1 ISR=    10 T=2 IP=      1 IndIP=     28 IndIPD=      5 C=  0.000000D+00  0.000000D+00  2.824423D-01  0.000000D+00 NZ=T
 IS=    11 IAt=     2 ISR=     1 T=0 IP=      1 IndIP=     29 IndIPD=      0 C=  8.208952D-01  0.000000D+00                             NZ=T
 IS=    11 IAt=     2 ISR=     1 T=0 IP=      2 IndIP=     30 IndIPD=      1 C=  1.476645D+00  0.000000D+00                             NZ=T
 IS=    11 IAt=     2 ISR=     1 T=0 IP=      3 IndIP=     31 IndIPD=      2 C=  2.152612D+00  0.000000D+00                             NZ=T
 IS=    11 IAt=     2 ISR=     1 T=0 IP=      4 IndIP=     32 IndIPD=      3 C=  2.108172D+00  0.000000D+00                             NZ=T
 IS=    11 IAt=     2 ISR=     1 T=0 IP=      5 IndIP=     33 IndIPD=      4 C=  8.291000D-01  0.000000D+00                             NZ=T
 IS=    12 IAt=     2 ISR=     2 T=0 IP=      1 IndIP=     34 IndIPD=      0 C=  3.601183D-01  0.000000D+00                             NZ=T
 IS=    13 IAt=     2 ISR=     3 T=0 IP=      1 IndIP=     35 IndIPD=      0 C=  1.551027D-01  0.000000D+00                             NZ=T
 IS=    14 IAt=     2 ISR=     4 T=1 IP=      1 IndIP=     36 IndIPD=      0 C=  0.000000D+00  1.346764D+00                             NZ=T
 IS=    14 IAt=     2 ISR=     4 T=1 IP=      2 IndIP=     37 IndIPD=      1 C=  0.000000D+00  1.067807D+00                             NZ=T
 IS=    14 IAt=     2 ISR=     4 T=1 IP=      3 IndIP=     38 IndIPD=      2 C=  0.000000D+00  5.108736D-01                             NZ=T
 IS=    15 IAt=     2 ISR=     5 T=1 IP=      1 IndIP=     39 IndIPD=      0 C=  0.000000D+00  1.360472D-01                             NZ=T
 IS=    16 IAt=     2 ISR=     6 T=2 IP=      1 IndIP=     40 IndIPD=      6 C=  0.000000D+00  0.000000D+00  1.113825D+00  0.000000D+00 NZ=T
 IS=    17 IAt=     3 ISR=     1 T=0 IP=      1 IndIP=     41 IndIPD=      0 C=  8.208952D-01  0.000000D+00                             NZ=T
 IS=    17 IAt=     3 ISR=     1 T=0 IP=      2 IndIP=     42 IndIPD=      1 C=  1.476645D+00  0.000000D+00                             NZ=T
 IS=    17 IAt=     3 ISR=     1 T=0 IP=      3 IndIP=     43 IndIPD=      2 C=  2.152612D+00  0.000000D+00                             NZ=T
 IS=    17 IAt=     3 ISR=     1 T=0 IP=      4 IndIP=     44 IndIPD=      3 C=  2.108172D+00  0.000000D+00                             NZ=T
 IS=    17 IAt=     3 ISR=     1 T=0 IP=      5 IndIP=     45 IndIPD=      4 C=  8.291000D-01  0.000000D+00                             NZ=T
 IS=    18 IAt=     3 ISR=     2 T=0 IP=      1 IndIP=     46 IndIPD=      0 C=  3.601183D-01  0.000000D+00                             NZ=T
 IS=    19 IAt=     3 ISR=     3 T=0 IP=      1 IndIP=     47 IndIPD=      0 C=  1.551027D-01  0.000000D+00                             NZ=T
 IS=    20 IAt=     3 ISR=     4 T=1 IP=      1 IndIP=     48 IndIPD=      0 C=  0.000000D+00  1.346764D+00                             NZ=T
 IS=    20 IAt=     3 ISR=     4 T=1 IP=      2 IndIP=     49 IndIPD=      1 C=  0.000000D+00  1.067807D+00                             NZ=T
 IS=    20 IAt=     3 ISR=     4 T=1 IP=      3 IndIP=     50 IndIPD=      2 C=  0.000000D+00  5.108736D-01                             NZ=T
 IS=    21 IAt=     3 ISR=     5 T=1 IP=      1 IndIP=     51 IndIPD=      0 C=  0.000000D+00  1.360472D-01                             NZ=T
 IS=    22 IAt=     3 ISR=     6 T=2 IP=      1 IndIP=     52 IndIPD=      7 C=  0.000000D+00  0.000000D+00  1.113825D+00  0.000000D+00 NZ=T
 IS=    23 IAt=     4 ISR=     1 T=0 IP=      1 IndIP=     53 IndIPD=      0 C= -1.261586D+00  0.000000D+00                             NZ=T
 IS=    23 IAt=     4 ISR=     1 T=0 IP=      2 IndIP=     54 IndIPD=      1 C= -2.274850D+00  0.000000D+00                             NZ=T
 IS=    23 IAt=     4 ISR=     1 T=0 IP=      3 IndIP=     55 IndIPD=      2 C= -3.347962D+00  0.000000D+00                             NZ=T
 IS=    23 IAt=     4 ISR=     1 T=0 IP=      4 IndIP=     56 IndIPD=      3 C= -3.329998D+00  0.000000D+00                             NZ=T
 IS=    23 IAt=     4 ISR=     1 T=0 IP=      5 IndIP=     57 IndIPD=      4 C= -1.320383D+00  0.000000D+00                             NZ=T
 IS=    24 IAt=     4 ISR=     2 T=0 IP=      1 IndIP=     58 IndIPD=      0 C=  6.083832D-01  0.000000D+00                             NZ=T
 IS=    25 IAt=     4 ISR=     3 T=0 IP=      1 IndIP=     59 IndIPD=      0 C=  2.559812D-01  0.000000D+00                             NZ=T
 IS=    26 IAt=     4 ISR=     4 T=1 IP=      1 IndIP=     60 IndIPD=      0 C=  0.000000D+00  3.246011D+00                             NZ=T
 IS=    26 IAt=     4 ISR=     4 T=1 IP=      2 IndIP=     61 IndIPD=      1 C=  0.000000D+00  2.573496D+00                             NZ=T
 IS=    26 IAt=     4 ISR=     4 T=1 IP=      3 IndIP=     62 IndIPD=      2 C=  0.000000D+00  1.120837D+00                             NZ=T
 IS=    27 IAt=     4 ISR=     5 T=1 IP=      1 IndIP=     63 IndIPD=      0 C=  0.000000D+00  2.856886D-01                             NZ=T
 IS=    28 IAt=     4 ISR=     6 T=2 IP=      1 IndIP=     64 IndIPD=      8 C=  0.000000D+00  0.000000D+00  2.264522D+00  0.000000D+00 NZ=T
 IS=    29 IAt=     5 ISR=     1 T=0 IP=      1 IndIP=     65 IndIPD=      0 C= -1.261586D+00  0.000000D+00                             NZ=T
 IS=    29 IAt=     5 ISR=     1 T=0 IP=      2 IndIP=     66 IndIPD=      1 C= -2.274850D+00  0.000000D+00                             NZ=T
 IS=    29 IAt=     5 ISR=     1 T=0 IP=      3 IndIP=     67 IndIPD=      2 C= -3.347962D+00  0.000000D+00                             NZ=T
 IS=    29 IAt=     5 ISR=     1 T=0 IP=      4 IndIP=     68 IndIPD=      3 C= -3.329998D+00  0.000000D+00                             NZ=T
 IS=    29 IAt=     5 ISR=     1 T=0 IP=      5 IndIP=     69 IndIPD=      4 C= -1.320383D+00  0.000000D+00                             NZ=T
 IS=    30 IAt=     5 ISR=     2 T=0 IP=      1 IndIP=     70 IndIPD=      0 C=  6.083832D-01  0.000000D+00                             NZ=T
 IS=    31 IAt=     5 ISR=     3 T=0 IP=      1 IndIP=     71 IndIPD=      0 C=  2.559812D-01  0.000000D+00                             NZ=T
 IS=    32 IAt=     5 ISR=     4 T=1 IP=      1 IndIP=     72 IndIPD=      0 C=  0.000000D+00  3.246011D+00                             NZ=T
 IS=    32 IAt=     5 ISR=     4 T=1 IP=      2 IndIP=     73 IndIPD=      1 C=  0.000000D+00  2.573496D+00                             NZ=T
 IS=    32 IAt=     5 ISR=     4 T=1 IP=      3 IndIP=     74 IndIPD=      2 C=  0.000000D+00  1.120837D+00                             NZ=T
 IS=    33 IAt=     5 ISR=     5 T=1 IP=      1 IndIP=     75 IndIPD=      0 C=  0.000000D+00  2.856886D-01                             NZ=T
 IS=    34 IAt=     5 ISR=     6 T=2 IP=      1 IndIP=     76 IndIPD=      9 C=  0.000000D+00  0.000000D+00  2.264522D+00  0.000000D+00 NZ=T
 IExCor= 1009 DFT=T Ex=PBE Corr=PBE ExCW=0 ScaHFX=  0.000000
 ScaDFX=  1.000000  1.000000  1.000000  1.000000 ScalE2=  1.000000  1.000000
 IRadAn=      5 IRanWt=     -1 IRanGd=            0 ICorTp=0 IEmpDi=  4
 NAtoms=    5 NActive=    5 NUniq=    3 SFac= 2.78D+00 NAtFMM=   60 NAOKFM=F Big=F
 Integral buffers will be    131072 words long.
 Raffenetti 2 integral format.
 Two-electron integral symmetry is turned on.
 Leave Link  301 at Thu Jan 31 12:38:06 2019, MaxMem=   524288000 cpu:               0.2 elap:               0.0
 (Enter /scratch/SOFT/gaussian/g16_a03/g16/l302.exe)
 NPDir=0 NMtPBC=     1 NCelOv=     1 NCel=       1 NClECP=     1 NCelD=      1
         NCelK=      1 NCelE2=     1 NClLst=     1 CellRange=     0.0.
 One-electron integrals computed using PRISM.
 One-electron integral symmetry used in STVInt
 Entering OneElI...
 Calculate overlap and kinetic energy integrals
    NBasis =  86  MinDer = 0  MaxDer = 0
 Requested accuracy = 0.1000D-12
 Symmetry will be used
 PrmmSu-InSpLW:  IPartL=    0 NPrtUS=    4 NPrtUL=    1 DoSpLW=F IThBeg=    0 IThEnd=    3 NThAct=    4.
 PrsmSu:  NPrtUS=   4 ThrOK=T IAlg=1 NPAlg=2 LenDen=           0 ISkipM=0 DoSpLW=F IThBeg=    0 IThEnd=    3.
 Prism:   IPart=     0 DynPar=F LinDyn=F Incr=           1.
 PRISM was handed   131037679 working-precision words and   562 shell-pairs
 PRISM was handed   131037679 working-precision words and   562 shell-pairs
 PRISM was handed   131037679 working-precision words and   562 shell-pairs
 PRISM was handed   131037679 working-precision words and   562 shell-pairs
 IPart=  2 NShTot=          70 NBatch=          26 AvBLen=         2.7
 IPart=  1 NShTot=          80 NBatch=          30 AvBLen=         2.7
 IPart=  3 NShTot=          59 NBatch=          21 AvBLen=         2.8
 IPart=  0 NShTot=         103 NBatch=          49 AvBLen=         2.1
 PrSmSu:  NxtVal=              5.
 *** Overlap *** 
                1             2             3             4             5 
      1  0.100000D+01
      2  0.308399D+00  0.100000D+01
      3  0.205601D-01  0.382863D+00  0.100000D+01
      4  0.126285D-01  0.904243D-01  0.401754D+00  0.100000D+01
      5  0.597934D-02  0.432376D-01  0.206821D+00  0.835678D+00  0.100000D+01
      6  0.000000D+00  0.000000D+00  0.000000D+00  0.000000D+00  0.000000D+00
      7  0.000000D+00  0.000000D+00  0.000000D+00  0.000000D+00  0.000000D+00
      8  0.000000D+00  0.000000D+00  0.000000D+00  0.000000D+00  0.000000D+00
      9  0.000000D+00  0.000000D+00  0.000000D+00  0.000000D+00  0.000000D+00
     10  0.000000D+00  0.000000D+00  0.000000D+00  0.000000D+00  0.000000D+00
     11  0.000000D+00  0.000000D+00  0.000000D+00  0.000000D+00  0.000000D+00
     12  0.000000D+00  0.000000D+00  0.000000D+00  0.000000D+00  0.000000D+00
     13  0.000000D+00  0.000000D+00  0.000000D+00  0.000000D+00  0.000000D+00
     14  0.000000D+00  0.000000D+00  0.000000D+00  0.000000D+00  0.000000D+00
     15  0.190297D-01  0.298241D+00  0.739213D+00  0.326608D+00  0.168910D+00
     16  0.190297D-01  0.298241D+00  0.739213D+00  0.326608D+00  0.168910D+00
     17  0.190297D-01  0.298241D+00  0.739213D+00  0.326608D+00  0.168910D+00
     18  0.000000D+00  0.000000D+00  0.000000D+00  0.000000D+00  0.000000D+00
     19  0.000000D+00  0.000000D+00  0.000000D+00  0.000000D+00  0.000000D+00
     20  0.000000D+00  0.000000D+00  0.000000D+00  0.000000D+00  0.000000D+00
     21  0.159585D-03  0.121369D-01  0.245993D+00  0.661240D+00  0.438555D+00
     22  0.159585D-03  0.121369D-01  0.245993D+00  0.661240D+00  0.438555D+00
     23  0.159585D-03  0.121369D-01  0.245993D+00  0.661240D+00  0.438555D+00
     24  0.000000D+00  0.000000D+00  0.000000D+00  0.000000D+00  0.000000D+00
     25  0.000000D+00  0.000000D+00  0.000000D+00  0.000000D+00  0.000000D+00
     26  0.000000D+00  0.000000D+00  0.000000D+00  0.000000D+00  0.000000D+00
     27  0.000000D+00  0.000000D+00  0.663639D-04  0.368292D-01  0.366873D-01
     28  0.215627D-03  0.184203D-02  0.213279D-01  0.261488D+00  0.261164D+00
     29  0.305169D-02  0.222531D-01  0.112237D+00  0.487012D+00  0.512842D+00
     30  0.000000D+00  0.000000D+00  0.000000D+00  0.000000D+00  0.000000D+00
     31 -0.170190D-03 -0.161212D-02 -0.256242D-01 -0.135299D+00 -0.542624D-01
     32  0.000000D+00  0.474930D-05  0.754887D-04  0.398591D-03  0.159856D-03
     33  0.000000D+00  0.000000D+00  0.000000D+00  0.000000D+00  0.000000D+00
     34 -0.725272D-02 -0.522495D-01 -0.239153D+00 -0.478675D+00 -0.240129D+00
     35  0.213664D-04  0.153926D-03  0.704543D-03  0.141017D-02  0.707419D-03
     36  0.000000D+00  0.393183D-05  0.217918D-02  0.169686D+00  0.180393D+00
     37  0.529077D-04  0.678200D-03  0.254273D-01  0.210814D+00  0.186744D+00
     38  0.000000D+00  0.393768D-05  0.217938D-02  0.169687D+00  0.180393D+00
     39  0.000000D+00  0.000000D+00  0.000000D+00  0.000000D+00  0.000000D+00
     40  0.000000D+00  0.000000D+00  0.000000D+00  0.000000D+00  0.000000D+00
     41  0.000000D+00 -0.344052D-05 -0.118626D-03 -0.209859D-03 -0.324079D-04
     42  0.000000D+00  0.000000D+00  0.663639D-04  0.368292D-01  0.366873D-01
     43  0.215627D-03  0.184203D-02  0.213279D-01  0.261488D+00  0.261164D+00
     44  0.305169D-02  0.222531D-01  0.112237D+00  0.487012D+00  0.512842D+00
     45  0.000000D+00  0.000000D+00  0.000000D+00  0.000000D+00  0.000000D+00
     46  0.170190D-03  0.161212D-02  0.256242D-01  0.135299D+00  0.542624D-01
     47  0.000000D+00  0.474930D-05  0.754887D-04  0.398591D-03  0.159856D-03
     48  0.000000D+00  0.000000D+00  0.000000D+00  0.000000D+00  0.000000D+00
     49  0.725272D-02  0.522495D-01  0.239153D+00  0.478675D+00  0.240129D+00
     50  0.213664D-04  0.153926D-03  0.704543D-03  0.141017D-02  0.707419D-03
     51  0.000000D+00  0.393183D-05  0.217918D-02  0.169686D+00  0.180393D+00
     52  0.529077D-04  0.678200D-03  0.254273D-01  0.210814D+00  0.186744D+00
     53  0.000000D+00  0.393768D-05  0.217938D-02  0.169687D+00  0.180393D+00
     54  0.000000D+00  0.000000D+00  0.000000D+00  0.000000D+00  0.000000D+00
     55  0.000000D+00  0.000000D+00  0.000000D+00  0.000000D+00  0.000000D+00
     56  0.000000D+00  0.344052D-05  0.118626D-03  0.209859D-03  0.324079D-04
     57  0.000000D+00  0.000000D+00  0.000000D+00 -0.145794D-02 -0.831203D-02
     58  0.000000D+00  0.000000D+00  0.000000D+00  0.130987D-01  0.598989D-01
     59  0.000000D+00  0.398469D-05  0.120958D-03  0.440676D-01  0.140621D+00
     60  0.000000D+00  0.000000D+00  0.000000D+00  0.000000D+00  0.000000D+00
     61  0.000000D+00  0.000000D+00  0.000000D+00 -0.895161D-02 -0.168515D-01
     62  0.000000D+00  0.000000D+00  0.000000D+00  0.263714D-04  0.496444D-04
     63  0.000000D+00  0.000000D+00  0.000000D+00  0.000000D+00  0.000000D+00
     64 -0.122322D-05 -0.119518D-04 -0.381308D-03 -0.695241D-01 -0.100102D+00
     65  0.000000D+00  0.000000D+00  0.112333D-05  0.204817D-03  0.294901D-03
     66  0.000000D+00  0.000000D+00  0.000000D+00  0.973875D-02  0.501419D-01
     67  0.000000D+00  0.000000D+00  0.000000D+00  0.152321D-01  0.541642D-01
     68  0.000000D+00  0.000000D+00  0.000000D+00  0.973880D-02  0.501420D-01
     69  0.000000D+00  0.000000D+00  0.000000D+00  0.000000D+00  0.000000D+00
     70  0.000000D+00  0.000000D+00  0.000000D+00  0.000000D+00  0.000000D+00
     71  0.000000D+00  0.000000D+00  0.000000D+00 -0.280303D-04 -0.205238D-04
     72  0.000000D+00  0.000000D+00  0.000000D+00 -0.145794D-02 -0.831203D-02
     73  0.000000D+00  0.000000D+00  0.000000D+00  0.130987D-01  0.598989D-01
     74  0.000000D+00  0.398469D-05  0.120958D-03  0.440676D-01  0.140621D+00
     75  0.000000D+00  0.000000D+00  0.000000D+00  0.000000D+00  0.000000D+00
     76  0.000000D+00  0.000000D+00  0.000000D+00  0.895161D-02  0.168515D-01
     77  0.000000D+00  0.000000D+00  0.000000D+00  0.263714D-04  0.496444D-04
     78  0.000000D+00  0.000000D+00  0.000000D+00  0.000000D+00  0.000000D+00
     79  0.122322D-05  0.119518D-04  0.381308D-03  0.695241D-01  0.100102D+00
     80  0.000000D+00  0.000000D+00  0.112333D-05  0.204817D-03  0.294901D-03
     81  0.000000D+00  0.000000D+00  0.000000D+00  0.973875D-02  0.501419D-01
     82  0.000000D+00  0.000000D+00  0.000000D+00  0.152321D-01  0.541642D-01
     83  0.000000D+00  0.000000D+00  0.000000D+00  0.973880D-02  0.501420D-01
     84  0.000000D+00  0.000000D+00  0.000000D+00  0.000000D+00  0.000000D+00
     85  0.000000D+00  0.000000D+00  0.000000D+00  0.000000D+00  0.000000D+00
     86  0.000000D+00  0.000000D+00  0.000000D+00  0.280303D-04  0.205238D-04
                6             7             8             9            10 
      6  0.100000D+01
      7  0.000000D+00  0.100000D+01
      8  0.000000D+00  0.000000D+00  0.100000D+01
      9  0.356132D+00  0.000000D+00  0.000000D+00  0.100000D+01
     10  0.000000D+00  0.356132D+00  0.000000D+00  0.000000D+00  0.100000D+01
     11  0.000000D+00  0.000000D+00  0.356132D+00  0.000000D+00  0.000000D+00
     12  0.176935D-01  0.000000D+00  0.000000D+00  0.279878D+00  0.000000D+00
     13  0.000000D+00  0.176935D-01  0.000000D+00  0.000000D+00  0.279878D+00
     14  0.000000D+00  0.000000D+00  0.176935D-01  0.000000D+00  0.000000D+00
     15  0.000000D+00  0.000000D+00  0.000000D+00  0.000000D+00  0.000000D+00
     16  0.000000D+00  0.000000D+00  0.000000D+00  0.000000D+00  0.000000D+00
     17  0.000000D+00  0.000000D+00  0.000000D+00  0.000000D+00  0.000000D+00
     18  0.000000D+00  0.000000D+00  0.000000D+00  0.000000D+00  0.000000D+00
     19  0.000000D+00  0.000000D+00  0.000000D+00  0.000000D+00  0.000000D+00
     20  0.000000D+00  0.000000D+00  0.000000D+00  0.000000D+00  0.000000D+00
     21  0.000000D+00  0.000000D+00  0.000000D+00  0.000000D+00  0.000000D+00
     22  0.000000D+00  0.000000D+00  0.000000D+00  0.000000D+00  0.000000D+00
     23  0.000000D+00  0.000000D+00  0.000000D+00  0.000000D+00  0.000000D+00
     24  0.000000D+00  0.000000D+00  0.000000D+00  0.000000D+00  0.000000D+00
     25  0.000000D+00  0.000000D+00  0.000000D+00  0.000000D+00  0.000000D+00
     26  0.000000D+00  0.000000D+00  0.000000D+00  0.000000D+00  0.000000D+00
     27  0.000000D+00  0.000000D+00  0.000000D+00  0.000000D+00  0.687437D-03
     28  0.000000D+00  0.100260D-02 -0.295366D-05  0.000000D+00  0.392352D-01
     29  0.000000D+00  0.417953D-02 -0.123128D-04  0.000000D+00  0.811811D-01
     30  0.862036D-04  0.000000D+00  0.000000D+00  0.701104D-02  0.000000D+00
     31  0.000000D+00 -0.106757D-02  0.339901D-05  0.000000D+00 -0.504600D-01
     32  0.000000D+00  0.339901D-05  0.861936D-04  0.000000D+00  0.169309D-03
     33  0.294769D-02  0.000000D+00  0.000000D+00  0.581819D-01  0.000000D+00
     34  0.000000D+00 -0.850317D-02  0.337341D-04  0.000000D+00 -0.136709D+00
     35  0.000000D+00  0.337341D-04  0.294759D-02  0.000000D+00  0.574146D-03
     36  0.000000D+00  0.297699D-05  0.000000D+00  0.000000D+00  0.764449D-02
     37  0.000000D+00  0.584319D-03 -0.192257D-05  0.000000D+00  0.567521D-01
     38  0.000000D+00  0.298263D-05  0.000000D+00  0.000000D+00  0.764502D-02
     39 -0.591387D-04  0.000000D+00  0.000000D+00 -0.109622D-01  0.000000D+00
     40  0.000000D+00  0.000000D+00  0.000000D+00  0.322944D-04  0.000000D+00
     41  0.000000D+00 -0.314058D-05 -0.591290D-04  0.000000D+00 -0.282871D-03
     42  0.000000D+00  0.000000D+00  0.000000D+00  0.000000D+00 -0.687437D-03
     43  0.000000D+00 -0.100260D-02 -0.295366D-05  0.000000D+00 -0.392352D-01
     44  0.000000D+00 -0.417953D-02 -0.123128D-04  0.000000D+00 -0.811811D-01
     45  0.862036D-04  0.000000D+00  0.000000D+00  0.701104D-02  0.000000D+00
     46  0.000000D+00 -0.106757D-02 -0.339901D-05  0.000000D+00 -0.504600D-01
     47  0.000000D+00 -0.339901D-05  0.861936D-04  0.000000D+00 -0.169309D-03
     48  0.294769D-02  0.000000D+00  0.000000D+00  0.581819D-01  0.000000D+00
     49  0.000000D+00 -0.850317D-02 -0.337341D-04  0.000000D+00 -0.136709D+00
     50  0.000000D+00 -0.337341D-04  0.294759D-02  0.000000D+00 -0.574146D-03
     51  0.000000D+00 -0.297699D-05  0.000000D+00  0.000000D+00 -0.764449D-02
     52  0.000000D+00 -0.584319D-03 -0.192257D-05  0.000000D+00 -0.567521D-01
     53  0.000000D+00 -0.298263D-05  0.000000D+00  0.000000D+00 -0.764502D-02
     54  0.591387D-04  0.000000D+00  0.000000D+00  0.109622D-01  0.000000D+00
     55  0.000000D+00  0.000000D+00  0.000000D+00  0.322944D-04  0.000000D+00
     56  0.000000D+00 -0.314058D-05  0.591290D-04  0.000000D+00 -0.282871D-03
     57  0.000000D+00  0.000000D+00  0.000000D+00  0.000000D+00  0.000000D+00
     58  0.000000D+00  0.000000D+00  0.000000D+00  0.000000D+00  0.000000D+00
     59  0.000000D+00  0.250177D-05  0.000000D+00  0.000000D+00  0.370458D-03
     60  0.000000D+00  0.000000D+00  0.000000D+00  0.000000D+00  0.000000D+00
     61  0.000000D+00  0.000000D+00  0.000000D+00  0.000000D+00  0.000000D+00
     62  0.000000D+00  0.000000D+00  0.000000D+00  0.000000D+00  0.000000D+00
     63  0.000000D+00  0.000000D+00  0.000000D+00  0.728888D-04  0.000000D+00
     64  0.000000D+00 -0.773157D-05  0.000000D+00  0.000000D+00 -0.114795D-02
     65  0.000000D+00  0.000000D+00  0.000000D+00  0.000000D+00  0.359659D-05
     66  0.000000D+00  0.000000D+00  0.000000D+00  0.000000D+00  0.000000D+00
     67  0.000000D+00  0.000000D+00  0.000000D+00  0.000000D+00  0.101898D-05
     68  0.000000D+00  0.000000D+00  0.000000D+00  0.000000D+00  0.000000D+00
     69  0.000000D+00  0.000000D+00  0.000000D+00  0.000000D+00  0.000000D+00
     70  0.000000D+00  0.000000D+00  0.000000D+00  0.000000D+00  0.000000D+00
     71  0.000000D+00  0.000000D+00  0.000000D+00  0.000000D+00  0.000000D+00
     72  0.000000D+00  0.000000D+00  0.000000D+00  0.000000D+00  0.000000D+00
     73  0.000000D+00  0.000000D+00  0.000000D+00  0.000000D+00  0.000000D+00
     74  0.000000D+00 -0.250177D-05  0.000000D+00  0.000000D+00 -0.370458D-03
     75  0.000000D+00  0.000000D+00  0.000000D+00  0.000000D+00  0.000000D+00
     76  0.000000D+00  0.000000D+00  0.000000D+00  0.000000D+00  0.000000D+00
     77  0.000000D+00  0.000000D+00  0.000000D+00  0.000000D+00  0.000000D+00
     78  0.000000D+00  0.000000D+00  0.000000D+00  0.728888D-04  0.000000D+00
     79  0.000000D+00 -0.773157D-05  0.000000D+00  0.000000D+00 -0.114795D-02
     80  0.000000D+00  0.000000D+00  0.000000D+00  0.000000D+00 -0.359659D-05
     81  0.000000D+00  0.000000D+00  0.000000D+00  0.000000D+00  0.000000D+00
     82  0.000000D+00  0.000000D+00  0.000000D+00  0.000000D+00 -0.101898D-05
     83  0.000000D+00  0.000000D+00  0.000000D+00  0.000000D+00  0.000000D+00
     84  0.000000D+00  0.000000D+00  0.000000D+00  0.000000D+00  0.000000D+00
     85  0.000000D+00  0.000000D+00  0.000000D+00  0.000000D+00  0.000000D+00
     86  0.000000D+00  0.000000D+00  0.000000D+00  0.000000D+00  0.000000D+00
               11            12            13            14            15 
     11  0.100000D+01
     12  0.000000D+00  0.100000D+01
     13  0.000000D+00  0.000000D+00  0.100000D+01
     14  0.279878D+00  0.000000D+00  0.000000D+00  0.100000D+01
     15  0.000000D+00  0.000000D+00  0.000000D+00  0.000000D+00  0.100000D+01
     16  0.000000D+00  0.000000D+00  0.000000D+00  0.000000D+00  0.333333D+00
     17  0.000000D+00  0.000000D+00  0.000000D+00  0.000000D+00  0.333333D+00
     18  0.000000D+00  0.000000D+00  0.000000D+00  0.000000D+00  0.000000D+00
     19  0.000000D+00  0.000000D+00  0.000000D+00  0.000000D+00  0.000000D+00
     20  0.000000D+00  0.000000D+00  0.000000D+00  0.000000D+00  0.000000D+00
     21  0.000000D+00  0.000000D+00  0.000000D+00  0.000000D+00  0.384102D+00
     22  0.000000D+00  0.000000D+00  0.000000D+00  0.000000D+00  0.128034D+00
     23  0.000000D+00  0.000000D+00  0.000000D+00  0.000000D+00  0.128034D+00
     24  0.000000D+00  0.000000D+00  0.000000D+00  0.000000D+00  0.000000D+00
     25  0.000000D+00  0.000000D+00  0.000000D+00  0.000000D+00  0.000000D+00
     26  0.000000D+00  0.000000D+00  0.000000D+00  0.000000D+00  0.000000D+00
     27 -0.202518D-05  0.000000D+00  0.730930D-01 -0.215331D-03  0.000000D+00
     28 -0.115587D-03  0.000000D+00  0.432962D+00 -0.127550D-02  0.103344D-01
     29 -0.239159D-03  0.000000D+00  0.551071D+00 -0.162345D-02  0.846147D-01
     30  0.000000D+00  0.116670D+00  0.000000D+00  0.000000D+00  0.000000D+00
     31  0.169309D-03  0.000000D+00 -0.214514D+00  0.975663D-03 -0.107559D-01
     32  0.701054D-02  0.000000D+00  0.975663D-03  0.116667D+00  0.316869D-04
     33  0.000000D+00  0.394538D+00  0.000000D+00  0.000000D+00  0.000000D+00
     34  0.574146D-03  0.000000D+00 -0.335555D+00  0.215085D-02 -0.185714D+00
     35  0.581802D-01  0.000000D+00  0.215085D-02  0.394531D+00  0.547113D-03
     36 -0.225206D-04  0.000000D+00  0.296030D+00 -0.872102D-03  0.108422D-02
     37 -0.204481D-03  0.000000D+00  0.345086D+00 -0.131077D-02  0.799777D-02
     38  0.147682D-04  0.000000D+00  0.296031D+00 -0.577957D-03  0.361473D-03
     39  0.000000D+00 -0.864703D-01  0.000000D+00  0.000000D+00  0.000000D+00
     40  0.000000D+00  0.254741D-03  0.000000D+00  0.000000D+00  0.000000D+00
     41 -0.109612D-01  0.000000D+00 -0.505054D-03 -0.864680D-01 -0.389654D-04
     42 -0.202518D-05  0.000000D+00 -0.730930D-01 -0.215331D-03  0.000000D+00
     43 -0.115587D-03  0.000000D+00 -0.432962D+00 -0.127550D-02  0.103344D-01
     44 -0.239159D-03  0.000000D+00 -0.551071D+00 -0.162345D-02  0.846147D-01
     45  0.000000D+00  0.116670D+00  0.000000D+00  0.000000D+00  0.000000D+00
     46 -0.169309D-03  0.000000D+00 -0.214514D+00 -0.975663D-03  0.107559D-01
     47  0.701054D-02  0.000000D+00 -0.975663D-03  0.116667D+00  0.316869D-04
     48  0.000000D+00  0.394538D+00  0.000000D+00  0.000000D+00  0.000000D+00
     49 -0.574146D-03  0.000000D+00 -0.335555D+00 -0.215085D-02  0.185714D+00
     50  0.581802D-01  0.000000D+00 -0.215085D-02  0.394531D+00  0.547113D-03
     51 -0.225206D-04  0.000000D+00 -0.296030D+00 -0.872102D-03  0.108422D-02
     52 -0.204481D-03  0.000000D+00 -0.345086D+00 -0.131077D-02  0.799777D-02
     53  0.147682D-04  0.000000D+00 -0.296031D+00 -0.577957D-03  0.361473D-03
     54  0.000000D+00  0.864703D-01  0.000000D+00  0.000000D+00  0.000000D+00
     55  0.000000D+00  0.254741D-03  0.000000D+00  0.000000D+00  0.000000D+00
     56  0.109612D-01  0.000000D+00 -0.505054D-03  0.864680D-01  0.389654D-04
     57  0.000000D+00  0.000000D+00 -0.146160D-02  0.430586D-05  0.000000D+00
     58  0.000000D+00  0.000000D+00  0.157991D-01 -0.465440D-04  0.000000D+00
     59 -0.109137D-05  0.000000D+00  0.629696D-01 -0.185508D-03  0.426383D-04
     60  0.000000D+00  0.140211D-02  0.000000D+00  0.000000D+00  0.000000D+00
     61  0.000000D+00  0.000000D+00 -0.132833D-01  0.432630D-04  0.000000D+00
     62  0.000000D+00  0.000000D+00  0.432630D-04  0.140198D-02  0.000000D+00
     63  0.000000D+00  0.164719D-01  0.000000D+00  0.000000D+00  0.000000D+00
     64  0.359659D-05  0.000000D+00 -0.113611D+00  0.383223D-03 -0.132462D-03
     65  0.728783D-04  0.000000D+00  0.383223D-03  0.164708D-01  0.000000D+00
     66  0.000000D+00  0.000000D+00  0.107598D-01 -0.316982D-04  0.000000D+00
     67  0.000000D+00  0.000000D+00  0.211199D-01 -0.693465D-04  0.000000D+00
     68  0.000000D+00  0.000000D+00  0.107599D-01 -0.245709D-04  0.000000D+00
     69  0.000000D+00 -0.209528D-02  0.000000D+00  0.000000D+00  0.000000D+00
     70  0.000000D+00  0.617268D-05  0.000000D+00  0.000000D+00  0.000000D+00
     71  0.000000D+00  0.000000D+00 -0.590362D-04 -0.209509D-02  0.000000D+00
     72  0.000000D+00  0.000000D+00  0.146160D-02  0.430586D-05  0.000000D+00
     73  0.000000D+00  0.000000D+00 -0.157991D-01 -0.465440D-04  0.000000D+00
     74 -0.109137D-05  0.000000D+00 -0.629696D-01 -0.185508D-03  0.426383D-04
     75  0.000000D+00  0.140211D-02  0.000000D+00  0.000000D+00  0.000000D+00
     76  0.000000D+00  0.000000D+00 -0.132833D-01 -0.432630D-04  0.000000D+00
     77  0.000000D+00  0.000000D+00 -0.432630D-04  0.140198D-02  0.000000D+00
     78  0.000000D+00  0.164719D-01  0.000000D+00  0.000000D+00  0.000000D+00
     79 -0.359659D-05  0.000000D+00 -0.113611D+00 -0.383223D-03  0.132462D-03
     80  0.728783D-04  0.000000D+00 -0.383223D-03  0.164708D-01  0.000000D+00
     81  0.000000D+00  0.000000D+00 -0.107598D-01 -0.316982D-04  0.000000D+00
     82  0.000000D+00  0.000000D+00 -0.211199D-01 -0.693465D-04  0.000000D+00
     83  0.000000D+00  0.000000D+00 -0.107599D-01 -0.245709D-04  0.000000D+00
     84  0.000000D+00  0.209528D-02  0.000000D+00  0.000000D+00  0.000000D+00
     85  0.000000D+00  0.617268D-05  0.000000D+00  0.000000D+00  0.000000D+00
     86  0.000000D+00  0.000000D+00 -0.590362D-04  0.209509D-02  0.000000D+00
               16            17            18            19            20 
     16  0.100000D+01
     17  0.333333D+00  0.100000D+01
     18  0.000000D+00  0.000000D+00  0.100000D+01
     19  0.000000D+00  0.000000D+00  0.000000D+00  0.100000D+01
     20  0.000000D+00  0.000000D+00  0.000000D+00  0.000000D+00  0.100000D+01
     21  0.128034D+00  0.128034D+00  0.000000D+00  0.000000D+00  0.000000D+00
     22  0.384102D+00  0.128034D+00  0.000000D+00  0.000000D+00  0.000000D+00
     23  0.128034D+00  0.384102D+00  0.000000D+00  0.000000D+00  0.000000D+00
     24  0.000000D+00  0.000000D+00  0.384102D+00  0.000000D+00  0.000000D+00
     25  0.000000D+00  0.000000D+00  0.000000D+00  0.384102D+00  0.000000D+00
     26  0.000000D+00  0.000000D+00  0.000000D+00  0.000000D+00  0.384102D+00
     27  0.371621D-04  0.000000D+00  0.000000D+00  0.000000D+00  0.000000D+00
     28  0.333189D-01  0.103346D-01  0.000000D+00  0.000000D+00 -0.117281D-03
     29  0.106760D+00  0.846149D-01  0.000000D+00  0.000000D+00 -0.112998D-03
     30  0.000000D+00  0.000000D+00  0.729548D-02 -0.214924D-04  0.000000D+00
     31 -0.444198D-01 -0.107563D-01  0.000000D+00  0.000000D+00  0.193266D-03
     32  0.155678D-03  0.687071D-05  0.000000D+00  0.000000D+00  0.729484D-02
     33  0.000000D+00  0.000000D+00  0.314648D-01 -0.926952D-04  0.000000D+00
     34 -0.213666D+00 -0.185715D+00  0.000000D+00  0.000000D+00  0.235323D-03
     35  0.736494D-03  0.440080D-03  0.000000D+00  0.000000D+00  0.314639D-01
     36  0.327170D-02  0.361432D-03  0.000000D+00  0.000000D+00 -0.148501D-04
     37  0.511715D-01  0.799830D-02  0.000000D+00  0.000000D+00 -0.263140D-03
     38  0.327227D-02  0.108415D-02  0.000000D+00  0.000000D+00  0.316775D-04
     39  0.000000D+00  0.000000D+00 -0.125941D-01  0.402963D-04  0.000000D+00
     40  0.000000D+00  0.000000D+00  0.402963D-04  0.108410D-02  0.000000D+00
     41 -0.287256D-03  0.756228D-05  0.000000D+00  0.000000D+00 -0.125928D-01
     42  0.371621D-04  0.000000D+00  0.000000D+00  0.000000D+00  0.000000D+00
     43  0.333189D-01  0.103346D-01  0.000000D+00  0.000000D+00  0.117281D-03
     44  0.106760D+00  0.846149D-01  0.000000D+00  0.000000D+00  0.112998D-03
     45  0.000000D+00  0.000000D+00 -0.729548D-02 -0.214924D-04  0.000000D+00
     46  0.444198D-01  0.107563D-01  0.000000D+00  0.000000D+00  0.193266D-03
     47  0.155678D-03  0.687071D-05  0.000000D+00  0.000000D+00 -0.729484D-02
     48  0.000000D+00  0.000000D+00 -0.314648D-01 -0.926952D-04  0.000000D+00
     49  0.213666D+00  0.185715D+00  0.000000D+00  0.000000D+00  0.235323D-03
     50  0.736494D-03  0.440080D-03  0.000000D+00  0.000000D+00 -0.314639D-01
     51  0.327170D-02  0.361432D-03  0.000000D+00  0.000000D+00  0.148501D-04
     52  0.511715D-01  0.799830D-02  0.000000D+00  0.000000D+00  0.263140D-03
     53  0.327227D-02  0.108415D-02  0.000000D+00  0.000000D+00 -0.316775D-04
     54  0.000000D+00  0.000000D+00 -0.125941D-01 -0.402963D-04  0.000000D+00
     55  0.000000D+00  0.000000D+00 -0.402963D-04  0.108410D-02  0.000000D+00
     56  0.287256D-03 -0.756228D-05  0.000000D+00  0.000000D+00 -0.125928D-01
     57  0.000000D+00  0.000000D+00  0.000000D+00  0.000000D+00  0.000000D+00
     58  0.000000D+00  0.000000D+00  0.000000D+00  0.000000D+00  0.000000D+00
     59  0.192914D-03  0.426397D-04  0.000000D+00  0.000000D+00  0.000000D+00
     60  0.000000D+00  0.000000D+00  0.000000D+00  0.000000D+00  0.000000D+00
     61  0.000000D+00  0.000000D+00  0.000000D+00  0.000000D+00  0.000000D+00
     62  0.000000D+00  0.000000D+00  0.000000D+00  0.000000D+00  0.000000D+00
     63  0.000000D+00  0.000000D+00  0.474810D-04  0.000000D+00  0.000000D+00
     64 -0.618662D-03 -0.132467D-03  0.000000D+00  0.000000D+00  0.262076D-05
     65  0.198409D-05  0.000000D+00  0.000000D+00  0.000000D+00  0.474728D-04
     66  0.000000D+00  0.000000D+00  0.000000D+00  0.000000D+00  0.000000D+00
     67  0.000000D+00  0.000000D+00  0.000000D+00  0.000000D+00  0.000000D+00
     68  0.000000D+00  0.000000D+00  0.000000D+00  0.000000D+00  0.000000D+00
     69  0.000000D+00  0.000000D+00  0.000000D+00  0.000000D+00  0.000000D+00
     70  0.000000D+00  0.000000D+00  0.000000D+00  0.000000D+00  0.000000D+00
     71  0.000000D+00  0.000000D+00  0.000000D+00  0.000000D+00  0.000000D+00
     72  0.000000D+00  0.000000D+00  0.000000D+00  0.000000D+00  0.000000D+00
     73  0.000000D+00  0.000000D+00  0.000000D+00  0.000000D+00  0.000000D+00
     74  0.192914D-03  0.426397D-04  0.000000D+00  0.000000D+00  0.000000D+00
     75  0.000000D+00  0.000000D+00  0.000000D+00  0.000000D+00  0.000000D+00
     76  0.000000D+00  0.000000D+00  0.000000D+00  0.000000D+00  0.000000D+00
     77  0.000000D+00  0.000000D+00  0.000000D+00  0.000000D+00  0.000000D+00
     78  0.000000D+00  0.000000D+00 -0.474810D-04  0.000000D+00  0.000000D+00
     79  0.618662D-03  0.132467D-03  0.000000D+00  0.000000D+00  0.262076D-05
     80  0.198409D-05  0.000000D+00  0.000000D+00  0.000000D+00 -0.474728D-04
     81  0.000000D+00  0.000000D+00  0.000000D+00  0.000000D+00  0.000000D+00
     82  0.000000D+00  0.000000D+00  0.000000D+00  0.000000D+00  0.000000D+00
     83  0.000000D+00  0.000000D+00  0.000000D+00  0.000000D+00  0.000000D+00
     84  0.000000D+00  0.000000D+00  0.000000D+00  0.000000D+00  0.000000D+00
     85  0.000000D+00  0.000000D+00  0.000000D+00  0.000000D+00  0.000000D+00
     86  0.000000D+00  0.000000D+00  0.000000D+00  0.000000D+00  0.000000D+00
               21            22            23            24            25 
     21  0.100000D+01
     22  0.333333D+00  0.100000D+01
     23  0.333333D+00  0.333333D+00  0.100000D+01
     24  0.000000D+00  0.000000D+00  0.000000D+00  0.100000D+01
     25  0.000000D+00  0.000000D+00  0.000000D+00  0.000000D+00  0.100000D+01
     26  0.000000D+00  0.000000D+00  0.000000D+00  0.000000D+00  0.000000D+00
     27  0.324001D-03  0.361284D-01  0.324312D-03  0.000000D+00  0.000000D+00
     28  0.462270D-01  0.298200D+00  0.462292D-01  0.000000D+00  0.000000D+00
     29  0.202579D+00  0.383336D+00  0.202580D+00  0.000000D+00  0.000000D+00
     30  0.000000D+00  0.000000D+00  0.000000D+00  0.120716D+00 -0.355628D-03
     31 -0.437680D-01 -0.311965D+00 -0.437716D-01  0.000000D+00  0.000000D+00
     32  0.128940D-03  0.132969D-02 -0.281694D-03  0.000000D+00  0.000000D+00
     33  0.000000D+00  0.000000D+00  0.000000D+00  0.253074D+00 -0.745553D-03
     34 -0.349518D+00 -0.463754D+00 -0.349522D+00  0.000000D+00  0.000000D+00
     35  0.102968D-02  0.222711D-02  0.168798D-03  0.000000D+00  0.000000D+00
     36  0.301486D-01  0.152653D+00  0.100508D-01  0.000000D+00  0.000000D+00
     37  0.397741D-01  0.363844D+00  0.397790D-01  0.000000D+00  0.000000D+00
     38  0.100498D-01  0.152657D+00  0.301478D-01  0.000000D+00  0.000000D+00
     39  0.000000D+00  0.000000D+00  0.000000D+00 -0.165170D+00  0.575406D-03
     40  0.000000D+00  0.000000D+00  0.000000D+00  0.575406D-03  0.301469D-01
     41 -0.151673D-03 -0.163949D-02  0.512731D-03  0.000000D+00  0.000000D+00
     42  0.324001D-03  0.361284D-01  0.324312D-03  0.000000D+00  0.000000D+00
     43  0.462270D-01  0.298200D+00  0.462292D-01  0.000000D+00  0.000000D+00
     44  0.202579D+00  0.383336D+00  0.202580D+00  0.000000D+00  0.000000D+00
     45  0.000000D+00  0.000000D+00  0.000000D+00 -0.120716D+00 -0.355628D-03
     46  0.437680D-01  0.311965D+00  0.437716D-01  0.000000D+00  0.000000D+00
     47  0.128940D-03  0.132969D-02 -0.281694D-03  0.000000D+00  0.000000D+00
     48  0.000000D+00  0.000000D+00  0.000000D+00 -0.253074D+00 -0.745553D-03
     49  0.349518D+00  0.463754D+00  0.349522D+00  0.000000D+00  0.000000D+00
     50  0.102968D-02  0.222711D-02  0.168798D-03  0.000000D+00  0.000000D+00
     51  0.301486D-01  0.152653D+00  0.100508D-01  0.000000D+00  0.000000D+00
     52  0.397741D-01  0.363844D+00  0.397790D-01  0.000000D+00  0.000000D+00
     53  0.100498D-01  0.152657D+00  0.301478D-01  0.000000D+00  0.000000D+00
     54  0.000000D+00  0.000000D+00  0.000000D+00 -0.165170D+00 -0.575406D-03
     55  0.000000D+00  0.000000D+00  0.000000D+00 -0.575406D-03  0.301469D-01
     56  0.151673D-03  0.163949D-02 -0.512731D-03  0.000000D+00  0.000000D+00
     57  0.000000D+00 -0.163012D-05  0.000000D+00  0.000000D+00  0.000000D+00
     58  0.554185D-05  0.274927D-03  0.554419D-05  0.000000D+00  0.000000D+00
     59  0.954061D-03  0.968319D-02  0.954137D-03  0.000000D+00  0.000000D+00
     60  0.000000D+00  0.000000D+00  0.000000D+00  0.239754D-04  0.000000D+00
     61 -0.478204D-05 -0.304577D-03 -0.478488D-05  0.000000D+00  0.000000D+00
     62  0.000000D+00  0.000000D+00  0.000000D+00  0.000000D+00  0.000000D+00
     63  0.000000D+00  0.000000D+00  0.000000D+00  0.354413D-02 -0.104410D-04
     64 -0.270377D-02 -0.266550D-01 -0.270402D-02  0.000000D+00  0.000000D+00
     65  0.796529D-05  0.905817D-04 -0.409020D-05  0.000000D+00  0.000000D+00
     66  0.281323D-05  0.760843D-04  0.000000D+00  0.000000D+00  0.000000D+00
     67  0.789940D-05  0.551308D-03  0.790490D-05  0.000000D+00  0.000000D+00
     68  0.000000D+00  0.760892D-04  0.281315D-05  0.000000D+00  0.000000D+00
     69  0.000000D+00  0.000000D+00  0.000000D+00 -0.658038D-04  0.000000D+00
     70  0.000000D+00  0.000000D+00  0.000000D+00  0.000000D+00  0.281264D-05
     71  0.000000D+00 -0.264873D-05  0.000000D+00  0.000000D+00  0.000000D+00
     72  0.000000D+00 -0.163012D-05  0.000000D+00  0.000000D+00  0.000000D+00
     73  0.554185D-05  0.274927D-03  0.554419D-05  0.000000D+00  0.000000D+00
     74  0.954061D-03  0.968319D-02  0.954137D-03  0.000000D+00  0.000000D+00
     75  0.000000D+00  0.000000D+00  0.000000D+00 -0.239754D-04  0.000000D+00
     76  0.478204D-05  0.304577D-03  0.478488D-05  0.000000D+00  0.000000D+00
     77  0.000000D+00  0.000000D+00  0.000000D+00  0.000000D+00  0.000000D+00
     78  0.000000D+00  0.000000D+00  0.000000D+00 -0.354413D-02 -0.104410D-04
     79  0.270377D-02  0.266550D-01  0.270402D-02  0.000000D+00  0.000000D+00
     80  0.796529D-05  0.905817D-04 -0.409020D-05  0.000000D+00  0.000000D+00
     81  0.281323D-05  0.760843D-04  0.000000D+00  0.000000D+00  0.000000D+00
     82  0.789940D-05  0.551308D-03  0.790490D-05  0.000000D+00  0.000000D+00
     83  0.000000D+00  0.760892D-04  0.281315D-05  0.000000D+00  0.000000D+00
     84  0.000000D+00  0.000000D+00  0.000000D+00 -0.658038D-04  0.000000D+00
[...]
  80        5PZ        -0.00000   0.00000  -0.00000  -0.00000  -0.00000
  81        6XX        -0.00000  -0.00002  -0.00000   0.00000   0.00000
  82        6YY         0.00000   0.00049   0.00000   0.00000   0.00000
  83        6ZZ        -0.00000  -0.00002  -0.00000  -0.00000  -0.00000
  84        6XY        -0.00000  -0.00000   0.00000   0.00005   0.00000
  85        6XZ        -0.00000   0.00000  -0.00000   0.00000  -0.00000
  86        6YZ         0.00000   0.00000   0.00000  -0.00000  -0.00000
                          56        57        58        59        60
  56        6YZ         0.00090
  57 4   O  1S          0.00000   2.14102
  58        2S         -0.00000  -0.11068   0.90087
  59        3S         -0.00000  -0.04564   0.43094   0.34257
  60        4PX         0.00000   0.00000   0.00000   0.00000   0.68394
  61        4PY         0.00000   0.00000   0.00000   0.00000  -0.00000
  62        4PZ         0.00000   0.00000   0.00000   0.00000   0.00000
  63        5PX         0.00000   0.00000   0.00000   0.00000   0.20359
  64        5PY         0.00000   0.00000   0.00000   0.00000  -0.00000
  65        5PZ         0.00000   0.00000   0.00000   0.00000   0.00000
  66        6XX         0.00000  -0.00114   0.00541   0.00405   0.00000
  67        6YY         0.00000  -0.00132   0.00861   0.00398   0.00000
  68        6ZZ        -0.00000  -0.00119   0.00684   0.00487   0.00000
  69        6XY         0.00000  -0.00000   0.00000   0.00000   0.00000
  70        6XZ         0.00000   0.00000  -0.00000  -0.00000   0.00000
  71        6YZ         0.00000   0.00000  -0.00000  -0.00000   0.00000
  72 5   O  1S         -0.00000   0.00000   0.00000  -0.00000   0.00000
  73        2S          0.00000   0.00000   0.00000   0.00000   0.00000
  74        3S          0.00000  -0.00000   0.00000   0.00000   0.00000
  75        4PX        -0.00000   0.00000   0.00000   0.00000   0.00000
  76        4PY         0.00000   0.00000   0.00000  -0.00000   0.00000
  77        4PZ         0.00071   0.00000   0.00000  -0.00000   0.00000
  78        5PX        -0.00000  -0.00000   0.00000   0.00000  -0.00000
  79        5PY         0.00000  -0.00000   0.00000  -0.00000  -0.00000
  80        5PZ         0.00175   0.00000  -0.00000  -0.00000  -0.00000
  81        6XX         0.00000   0.00000   0.00000  -0.00000   0.00000
  82        6YY         0.00000   0.00000   0.00000  -0.00000   0.00000
  83        6ZZ         0.00000   0.00000   0.00000   0.00000   0.00000
  84        6XY        -0.00000   0.00000   0.00000   0.00000   0.00000
  85        6XZ        -0.00000   0.00000   0.00000   0.00000   0.00000
  86        6YZ         0.00005   0.00000   0.00000  -0.00000   0.00000
                          61        62        63        64        65
  61        4PY         0.51110
  62        4PZ         0.00000   0.62946
  63        5PX        -0.00000   0.00000   0.24086
  64        5PY         0.13659   0.00000  -0.00000   0.14554
  65        5PZ        -0.00000   0.18683   0.00000  -0.00000   0.22043
  66        6XX         0.00000   0.00000   0.00000   0.00000   0.00000
  67        6YY         0.00000   0.00000   0.00000   0.00000   0.00000
  68        6ZZ         0.00000   0.00000   0.00000   0.00000   0.00000
  69        6XY         0.00000   0.00000   0.00000   0.00000   0.00000
  70        6XZ         0.00000   0.00000   0.00000   0.00000   0.00000
  71        6YZ         0.00000   0.00000   0.00000   0.00000   0.00000
  72 5   O  1S          0.00000   0.00000  -0.00000  -0.00000   0.00000
  73        2S          0.00000   0.00000   0.00000   0.00000  -0.00000
  74        3S         -0.00000  -0.00000   0.00000  -0.00000  -0.00000
  75        4PX         0.00000   0.00000  -0.00000  -0.00000   0.00000
  76        4PY         0.00000   0.00000  -0.00000  -0.00000  -0.00000
  77        4PZ         0.00000   0.00000  -0.00000   0.00000  -0.00000
  78        5PX        -0.00000   0.00000  -0.00000  -0.00000   0.00000
  79        5PY        -0.00000   0.00000  -0.00000  -0.00000  -0.00000
  80        5PZ        -0.00000  -0.00000  -0.00000   0.00000  -0.00000
  81        6XX         0.00000   0.00000   0.00000   0.00000  -0.00000
  82        6YY         0.00000   0.00000  -0.00000  -0.00000  -0.00000
  83        6ZZ         0.00000   0.00000   0.00000   0.00000  -0.00000
  84        6XY         0.00000   0.00000  -0.00000  -0.00000   0.00000
  85        6XZ         0.00000   0.00000  -0.00000   0.00000  -0.00000
  86        6YZ         0.00000   0.00000  -0.00000  -0.00000   0.00000
                          66        67        68        69        70
  66        6XX         0.00032
  67        6YY        -0.00002   0.00135
  68        6ZZ         0.00011  -0.00001   0.00037
  69        6XY         0.00000  -0.00000   0.00000   0.00064
  70        6XZ        -0.00000  -0.00000  -0.00000   0.00000   0.00000
  71        6YZ        -0.00000   0.00000   0.00000   0.00000  -0.00000
  72 5   O  1S          0.00000   0.00000   0.00000   0.00000   0.00000
  73        2S          0.00000   0.00000   0.00000   0.00000   0.00000
  74        3S         -0.00000  -0.00000   0.00000   0.00000  -0.00000
  75        4PX         0.00000   0.00000   0.00000   0.00000   0.00000
  76        4PY         0.00000   0.00000   0.00000   0.00000   0.00000
  77        4PZ         0.00000   0.00000   0.00000   0.00000   0.00000
  78        5PX         0.00000  -0.00000   0.00000  -0.00000  -0.00000
  79        5PY         0.00000  -0.00000   0.00000  -0.00000  -0.00000
  80        5PZ        -0.00000  -0.00000  -0.00000  -0.00000  -0.00000
  81        6XX         0.00000   0.00000   0.00000   0.00000   0.00000
  82        6YY         0.00000   0.00000   0.00000   0.00000   0.00000
  83        6ZZ         0.00000   0.00000   0.00000   0.00000   0.00000
  84        6XY         0.00000   0.00000   0.00000   0.00000   0.00000
  85        6XZ         0.00000   0.00000   0.00000   0.00000   0.00000
  86        6YZ         0.00000   0.00000   0.00000   0.00000   0.00000
                          71        72        73        74        75
  71        6YZ         0.00059
  72 5   O  1S          0.00000   2.14102
  73        2S          0.00000  -0.11068   0.90087
  74        3S         -0.00000  -0.04564   0.43094   0.34257
  75        4PX         0.00000   0.00000   0.00000   0.00000   0.68394
  76        4PY         0.00000   0.00000   0.00000   0.00000  -0.00000
  77        4PZ         0.00000   0.00000   0.00000   0.00000  -0.00000
  78        5PX         0.00000   0.00000   0.00000   0.00000   0.20359
  79        5PY        -0.00000   0.00000   0.00000   0.00000  -0.00000
  80        5PZ         0.00000   0.00000   0.00000   0.00000  -0.00000
  81        6XX         0.00000  -0.00114   0.00541   0.00405   0.00000
  82        6YY         0.00000  -0.00132   0.00861   0.00398   0.00000
  83        6ZZ         0.00000  -0.00119   0.00684   0.00487   0.00000
  84        6XY         0.00000  -0.00000   0.00000   0.00000   0.00000
  85        6XZ         0.00000  -0.00000   0.00000   0.00000   0.00000
  86        6YZ         0.00000   0.00000  -0.00000  -0.00000   0.00000
                          76        77        78        79        80
  76        4PY         0.51110
  77        4PZ         0.00000   0.62946
  78        5PX        -0.00000  -0.00000   0.24086
  79        5PY         0.13659   0.00000  -0.00000   0.14554
  80        5PZ        -0.00000   0.18683  -0.00000  -0.00000   0.22043
  81        6XX         0.00000   0.00000   0.00000   0.00000   0.00000
  82        6YY         0.00000   0.00000   0.00000   0.00000   0.00000
  83        6ZZ         0.00000   0.00000   0.00000   0.00000   0.00000
  84        6XY         0.00000   0.00000   0.00000   0.00000   0.00000
  85        6XZ         0.00000   0.00000   0.00000   0.00000   0.00000
  86        6YZ         0.00000   0.00000   0.00000   0.00000   0.00000
                          81        82        83        84        85
  81        6XX         0.00032
  82        6YY        -0.00002   0.00135
  83        6ZZ         0.00011  -0.00001   0.00037
  84        6XY         0.00000  -0.00000   0.00000   0.00064
  85        6XZ         0.00000   0.00000   0.00000   0.00000   0.00000
  86        6YZ        -0.00000   0.00000   0.00000  -0.00000  -0.00000
                          86
  86        6YZ         0.00059
     Gross orbital populations:
                           1
   1 1   Fe 1S          2.00007
   2        2S          2.00103
   3        3S          2.03416
   4        4S          0.04751
   5        5S         -0.00628
   6        6PX         1.99937
   7        6PY         1.99911
   8        6PZ         1.99937
   9        7PX         1.99910
  10        7PY         2.00261
  11        7PZ         1.99915
  12        8PX         0.01956
  13        8PY         0.49688
  14        8PZ         0.01822
  15        9XX         0.81060
  16        9YY         0.26251
  17        9ZZ         0.81756
  18        9XY         1.29762
  19        9XZ         0.30048
  20        9YZ         1.25942
  21       10XX         0.22247
  22       10YY         0.34302
  23       10ZZ         0.22535
  24       10XY         0.44547
  25       10XZ         0.08469
  26       10YZ         0.43997
  27 2   C  1S          1.98454
  28        2S          1.09912
  29        3S          0.30343
  30        4PX         0.40156
  31        4PY         0.66511
  32        4PZ         0.37463
  33        5PX         0.26545
  34        5PY         0.10301
  35        5PZ         0.24921
  36        6XX         0.02828
  37        6YY         0.07317
  38        6ZZ         0.02899
  39        6XY         0.00576
  40        6XZ         0.00002
  41        6YZ         0.00521
  42 3   C  1S          1.98454
  43        2S          1.09912
  44        3S          0.30343
  45        4PX         0.40156
  46        4PY         0.66511
  47        4PZ         0.37463
  48        5PX         0.26545
  49        5PY         0.10301
  50        5PZ         0.24921
  51        6XX         0.02828
  52        6YY         0.07317
  53        6ZZ         0.02899
  54        6XY         0.00576
  55        6XZ         0.00002
  56        6YZ         0.00521
  57 4   O  1S          1.98265
  58        2S          1.23627
  59        3S          0.69960
  60        4PX         0.91507
  61        4PY         0.73063
  62        4PZ         0.84149
  63        5PX         0.52128
  64        5PY         0.40867
  65        5PZ         0.47724
  66        6XX         0.00769
  67        6YY         0.01914
  68        6ZZ         0.00994
  69        6XY         0.00172
  70        6XZ         0.00000
  71        6YZ         0.00158
  72 5   O  1S          1.98265
  73        2S          1.23627
  74        3S          0.69960
  75        4PX         0.91507
  76        4PY         0.73063
  77        4PZ         0.84149
  78        5PX         0.52128
  79        5PY         0.40867
  80        5PZ         0.47724
  81        6XX         0.00769
  82        6YY         0.01914
  83        6ZZ         0.00994
  84        6XY         0.00172
  85        6XZ         0.00000
  86        6YZ         0.00158
          Condensed to atoms (all electrons):
               1          2          3          4          5
     1  Fe  24.464782   0.339311   0.339311  -0.012184  -0.012184
     2  C    0.339311   4.858250   0.007544   0.382404  -0.000004
     3  C    0.339311   0.007544   4.858250  -0.000004   0.382404
     4  O   -0.012184   0.382404  -0.000004   7.482761  -0.000000
     5  O   -0.012184  -0.000004   0.382404  -0.000000   7.482761
 Mulliken charges:
               1
     1  Fe   0.880964
     2  C    0.412495
     3  C    0.412495
     4  O    0.147023
     5  O    0.147023
 Sum of Mulliken charges =   2.00000
 Mulliken charges with hydrogens summed into heavy atoms:
               1
     1  Fe   0.880964
     2  C    0.412495
     3  C    0.412495
     4  O    0.147023
     5  O    0.147023
 Electronic spatial extent (au):  <R**2>=            891.8158
 Charge=              2.0000 electrons
 Dipole moment (field-independent basis, Debye):
    X=             -0.0000    Y=             -0.0000    Z=              0.0138  Tot=              0.0138
 Quadrupole moment (field-independent basis, Debye-Ang):
   XX=            -28.5970   YY=              3.0461   ZZ=            -28.1906
   XY=              0.0186   XZ=             -0.0000   YZ=              0.0000
 Traceless Quadrupole moment (field-independent basis, Debye-Ang):
   XX=            -10.6832   YY=             20.9599   ZZ=            -10.2768
   XY=              0.0186   XZ=             -0.0000   YZ=              0.0000
 Octapole moment (field-independent basis, Debye-Ang**2):
  XXX=             -0.0000  YYY=             -0.0000  ZZZ=              0.1005  XYY=              0.0000
  XXY=              0.0000  XXZ=              0.0359  XZZ=              0.0000  YZZ=             -0.0000
  YYZ=             -0.1217  XYZ=             -0.0170
 Hexadecapole moment (field-independent basis, Debye-Ang**3):
 XXXX=            -21.6309 YYYY=           -566.2890 ZZZZ=            -21.0987 XXXY=             -0.0462
 XXXZ=             -0.0000 YYYX=             -1.8435 YYYZ=             -0.0000 ZZZX=              0.0000
 ZZZY=             -0.0000 XXYY=           -160.4582 XXZZ=             -6.9128 YYZZ=           -156.7916
 XXYZ=             -0.0000 YYXZ=             -0.0000 ZZXY=             -0.0038
 N-N= 2.010610546721D+02 E-N=-3.909791263205D+03  KE= 1.482293992257D+03
 Symmetry A1   KE= 1.060282878366D+03
 Symmetry A2   KE= 1.638639144895D+01
 Symmetry B1   KE= 1.466433708281D+02
 Symmetry B2   KE= 2.589813516141D+02
 Orbital energies and kinetic energies (alpha):
                                 1                 2
   1         (A1)--O        -255.297875        325.533036
   2         (A1)--O         -30.122232         60.166546
   3         O               -26.083873         58.762072
   4         (A1)--O         -26.071781         58.785952
   5         O               -26.068564         58.784012
   6         (B2)--O         -19.338752         28.600588
   7         (A1)--O         -19.338740         28.599358
   8         (A1)--O         -10.548626         15.719758
   9         (B2)--O         -10.548548         15.723037
  10         (A1)--O          -3.837273         12.637337
  11         O                -2.667016         11.130225
  12         (A1)--O          -2.648918         11.143970
  13         O                -2.641773         11.133966
  14         (A1)--O          -1.307313          3.061113
  15         (B2)--O          -1.307197          3.063755
  16         (B2)--O          -1.011522          2.384420
  17         (B2)--O          -0.975893          2.293752
  18         (B2)--O          -0.847165          2.989580
  19         O                -0.803658          2.276944
  20         O                -0.786447          4.515169
  21         (B2)--O          -0.784901          4.550063
  22         (A1)--O          -0.751908          2.047319
  23         (B1)--O          -0.748798          2.028168
  24         (B2)--O          -0.738909          6.566562
  25         O                -0.730528          4.500675
  26         (B2)--O          -0.727976          4.149618
  27         V                -0.739435          6.321683
  28         (B2)--V          -0.713568          5.434945
  29         (A1)--V          -0.632961          1.918723
  30         V                -0.630939          1.934526
  31         V                -0.596909          2.996488
  32         (B2)--V          -0.595142          2.997832
  33         (A1)--V          -0.505487          2.862902
  34         V                -0.438213          3.085377
  35         (A1)--V          -0.367915          1.436711
  36         V                -0.367157          1.437767
  37         (A1)--V          -0.348079          2.458079
  38         (A1)--V          -0.218897          1.732284
  39         (B2)--V          -0.116644          1.783676
  40         (B2)--V           0.020640          1.955404
  41         V                 0.021124          1.780406
  42         V                 0.022217          1.676059
  43         (B2)--V           0.025609          2.335847
  44         (A1)--V           0.086579          1.860292
  45         (B1)--V           0.087537          1.859418
  46         V                 0.166220          1.617441
  47         V                 0.288469          2.054257
  48         (B2)--V           0.311266          2.460499
  49         V                 0.359939          4.201761
  50         V                 0.361451          4.210332
  51         V                 0.408952          5.054049
  52         V                 0.417740          4.986645
  53         (A1)--V           0.502058          2.885310
  54         (A1)--V           0.519277          3.291538
  55         V                 0.521534          3.294922
  56         V                 0.583273          3.029807
  57         V                 0.586269          3.796164
  58         V                 0.588064          3.806974
  59         V                 0.814208          4.934506
  60         (A1)--V           1.018460          3.358546
  61         V                 1.094812          3.176372
  62         V                 1.101581          2.798821
  63         V                 1.101659          2.798918
  64         V                 1.110458          2.863546
  65         V                 1.111830          2.863425
  66         (A1)--V           1.114111          2.843434
  67         (B1)--V           1.114240          2.844083
  68         (B2)--V           1.285814          3.432898
  69         (A2)--V           1.287216          3.432972
  70         (B2)--V           1.334375          3.537594
  71         (A1)--V           1.646650          4.644256
  72         V                 2.065965          4.202531
  73         V                 2.065991          4.202542
  74         V                 2.065998          4.202575
  75         V                 2.066026          4.202592
  76         V                 2.164693          4.335957
  77         V                 2.168270          4.336039
  78         V                 2.171945          4.345930
  79         V                 2.175468          4.345992
  80         (B2)--V           2.544510          5.203898
  81         (A1)--V           2.617444          5.335142
  82         (A1)--V           4.341069         13.396865
  83         (B2)--V           4.390626         14.406396
  84         (A1)--V           4.686900         11.005182
  85         (A1)--V           5.447738         17.987936
  86         (B2)--V           5.488007         18.229765
 Total kinetic energy from orbitals= 1.482293992257D+03
 No NMR shielding tensors so no spin-rotation constants.
 Leave Link  601 at Thu Jan 31 12:38:54 2019, MaxMem=   524288000 cpu:               0.4 elap:               0.1
 (Enter /scratch/SOFT/gaussian/g16_a03/g16/l9999.exe)

 Test job not archived.
 1\1\GINC-PHOENIX\SP\RPBEPBE\SVP\C2Fe1O2(2+)\MGIMFERRER\31-Jan-2019\0\\
 #p pbepbe/SVP pop=full scf=xqc 6d 10f gfinput iop(3/33=1)\\dsfdsf\\2,1
 \Fe,0,0.,0.,0.\C,0,1.337845834,-1.35186503,-0.005225752\C,0,-1.3448787
 76,1.344878776,0.\O,0,2.456508277,-2.482249861,-0.009595353\O,0,-2.469
 421932,2.469421932,0.\\Version=ES64L-G16RevA.03\State=1-A1\HF=-1488.29
 14233\RMSD=1.387e-12\Dipole=0.0034016,0.003379,0.0025275\Quadrupole=3.
 8715106,4.0054535,-7.876964,-11.6445212,0.0742733,0.1020906\PG=C02V [C
 2(Fe1),SGV(C2O2)]\\@


 MOM AND DAD WENT TO ALPHA CENTAURI AND ALL
 I GOT WAS THIS DUMB T-SHIRT.
 Job cpu time:       0 days  0 hours  3 minutes 10.8 seconds.
 Elapsed time:       0 days  0 hours  0 minutes 48.4 seconds.
 File lengths (MBytes):  RWF=      6 Int=      0 D2E=      0 Chk=      2 Scr=      1
 Normal termination of Gaussian 16 at Thu Jan 31 12:38:54 2019.
