Automatically generated file for job o2T-cas
SP        CASSCF ccpvtz
Number of atoms                            I                2
Charge                                     I                0
Number of electrons                        I               16
Number of alpha electrons                  I               10
Number of beta electrons                   I                6
Number of basis functions                  I               60
Number of independent functions            I               60
Atomic numbers                             I   N=           2
           8           8
Nuclear charges                            R   N=           2
  8.00000000E+00  8.00000000E+00
Current cartesian coordinates              R   N=           6
  0.00000000E+00  0.00000000E+00  0.00000000E+00  0.00000000E+00  0.00000000E+00
  2.26767135E+00
Force Field
Int Atom Types
MM charges
Atom fragment info
Atom residue num
Nuclear spins
Nuclear QMom
Nuclear GFac
MicOpt
SymInf integers
RotTr to input orientation
Nuclear ZEff
Nuclear ZNuc
Integer atomic weights
Real atomic weights
Number of contracted shells                I               20
Number of primitive shells                 I               52
Pure/Cartesian d shells                    I                1
Pure/Cartesian f shells                    I                1
Highest angular momentum                   I                3
Largest degree of contraction              I                8
Shell types                                I   N=          20
           0           0           0           0           1           1
           1          -2          -2          -3           0           0
           0           0           1           1           1          -2
          -2          -3
Number of primitives per shell             I   N=          20
           8           8           1           1           3           1
           1           1           1           1           8           8
           1           1           3           1           1           1
           1           1
Shell to atom map                          I   N=          20
           1           1           1           1           1           1
           1           1           1           1           2           2
           2           2           2           2           2           2
           2           2
Primitive exponents                        R   N=          52
  1.53300000E+04  2.29900000E+03  5.22400000E+02  1.47300000E+02  4.75500000E+01
  1.67600000E+01  6.20700000E+00  6.88200000E-01  1.53300000E+04  2.29900000E+03
  5.22400000E+02  1.47300000E+02  4.75500000E+01  1.67600000E+01  6.20700000E+00
  6.88200000E-01  1.75200000E+00  2.38400000E-01  3.44600000E+01  7.74900000E+00
  2.28000000E+00  7.15600000E-01  2.14000000E-01  2.31400000E+00  6.45000000E-01
  1.42800000E+00  1.53300000E+04  2.29900000E+03  5.22400000E+02  1.47300000E+02
  4.75500000E+01  1.67600000E+01  6.20700000E+00  6.88200000E-01  1.53300000E+04
  2.29900000E+03  5.22400000E+02  1.47300000E+02  4.75500000E+01  1.67600000E+01
  6.20700000E+00  6.88200000E-01  1.75200000E+00  2.38400000E-01  3.44600000E+01
  7.74900000E+00  2.28000000E+00  7.15600000E-01  2.14000000E-01  2.31400000E+00
  6.45000000E-01  1.42800000E+00
Contraction coefficients                   R   N=          52
  5.20198307E-04  4.02334478E-03  2.07290833E-02  8.10823271E-02  2.36226352E-01
  4.43518209E-01  3.58670589E-01 -8.34979724E-03 -1.97236012E-04 -1.53501070E-03
 -7.95118391E-03 -3.21134529E-02 -1.00269643E-01 -2.34047112E-01 -3.01410928E-01
  1.03491965E+00  1.00000000E+00  1.00000000E+00  4.11634896E-02  2.57762836E-01
  8.02419274E-01  1.00000000E+00  1.00000000E+00  1.00000000E+00  1.00000000E+00
  1.00000000E+00  5.20198307E-04  4.02334478E-03  2.07290833E-02  8.10823271E-02
  2.36226352E-01  4.43518209E-01  3.58670589E-01 -8.34979724E-03 -1.97236012E-04
 -1.53501070E-03 -7.95118391E-03 -3.21134529E-02 -1.00269643E-01 -2.34047112E-01
 -3.01410928E-01  1.03491965E+00  1.00000000E+00  1.00000000E+00  4.11634896E-02
  2.57762836E-01  8.02419274E-01  1.00000000E+00  1.00000000E+00  1.00000000E+00
  1.00000000E+00  1.00000000E+00
Coordinates of each shell                  R   N=          60
  0.00000000E+00  0.00000000E+00  0.00000000E+00  0.00000000E+00  0.00000000E+00
  0.00000000E+00  0.00000000E+00  0.00000000E+00  0.00000000E+00  0.00000000E+00
  0.00000000E+00  0.00000000E+00  0.00000000E+00  0.00000000E+00  0.00000000E+00
  0.00000000E+00  0.00000000E+00  0.00000000E+00  0.00000000E+00  0.00000000E+00
  0.00000000E+00  0.00000000E+00  0.00000000E+00  0.00000000E+00  0.00000000E+00
  0.00000000E+00  0.00000000E+00  0.00000000E+00  0.00000000E+00  0.00000000E+00
  0.00000000E+00  0.00000000E+00  2.26767135E+00  0.00000000E+00  0.00000000E+00
  2.26767135E+00  0.00000000E+00  0.00000000E+00  2.26767135E+00  0.00000000E+00
  0.00000000E+00  2.26767135E+00  0.00000000E+00  0.00000000E+00  2.26767135E+00
  0.00000000E+00  0.00000000E+00  2.26767135E+00  0.00000000E+00  0.00000000E+00
  2.26767135E+00  0.00000000E+00  0.00000000E+00  2.26767135E+00  0.00000000E+00
  0.00000000E+00  2.26767135E+00  0.00000000E+00  0.00000000E+00  2.26767135E+00
Constraint Structure                       R   N=           6
Num ILSW                                   I                0
ILSW                                       I   N=           0
Num RLSW                                   I                0
RLSW                                       R   N=           0
MxBond                                     I                0
NBond                                      I   N=           0
IBond                                      I   N=           0
RBond                                      R   N=           0
Virial Ratio                               R      1.986648400919383E+00
SCF Energy                                 R     -1.492181360444820E+02
Total Energy                               R     -1.492181360444820E+02
S**2                                       R      6.000000000000972E+00
RMS Density                                R      0.000000000000000E+00
Job Status                                 I                1
External E-field                           R   N=          35
  0.00000000E+00  0.00000000E+00  0.00000000E+00  0.00000000E+00  0.00000000E+00
  0.00000000E+00  0.00000000E+00  0.00000000E+00  0.00000000E+00  0.00000000E+00
  0.00000000E+00  0.00000000E+00  0.00000000E+00  0.00000000E+00  0.00000000E+00
  0.00000000E+00  0.00000000E+00  0.00000000E+00  0.00000000E+00  0.00000000E+00
  0.00000000E+00  0.00000000E+00  0.00000000E+00  0.00000000E+00  0.00000000E+00
  0.00000000E+00  0.00000000E+00  0.00000000E+00  0.00000000E+00  0.00000000E+00
  0.00000000E+00  0.00000000E+00  0.00000000E+00  0.00000000E+00  0.00000000E+00
IOpCl                                      I                0
IROHF                                      I                0
Number of CAS Electrons                    I                6
Number of CAS Orbitals                     I                6
Alpha Orbital Energies                     R   N=          60
  0.00000000E+00  0.00000000E+00  0.00000000E+00  0.00000000E+00  0.00000000E+00
  0.00000000E+00  0.00000000E+00  0.00000000E+00  0.00000000E+00  0.00000000E+00
  0.00000000E+00  0.00000000E+00  0.00000000E+00  0.00000000E+00  0.00000000E+00
  0.00000000E+00  0.00000000E+00  0.00000000E+00  0.00000000E+00  0.00000000E+00
  0.00000000E+00  0.00000000E+00  0.00000000E+00  0.00000000E+00  0.00000000E+00
  0.00000000E+00  0.00000000E+00  0.00000000E+00  0.00000000E+00  0.00000000E+00
  0.00000000E+00  0.00000000E+00  0.00000000E+00  0.00000000E+00  0.00000000E+00
  0.00000000E+00  0.00000000E+00  0.00000000E+00  0.00000000E+00  0.00000000E+00
  0.00000000E+00  0.00000000E+00  0.00000000E+00  0.00000000E+00  0.00000000E+00
  0.00000000E+00  0.00000000E+00  0.00000000E+00  0.00000000E+00  0.00000000E+00
  0.00000000E+00  0.00000000E+00  0.00000000E+00  0.00000000E+00  0.00000000E+00
  0.00000000E+00  0.00000000E+00  0.00000000E+00  0.00000000E+00  0.00000000E+00
Alpha MO coefficients                      R   N=        3600
  9.74187670E-01 -1.61566270E-03  4.33959253E-02  2.11659869E-03  4.65814588E-04
  6.72709440E-04  4.79612609E-04  6.10307867E-04  8.81170343E-04 -1.94028243E-03
  3.78811051E-04  5.47018831E-04 -4.20307783E-04  2.48765754E-04  1.39897428E-05
  2.02196870E-05 -1.49644846E-05  3.98246211E-05 -4.03798913E-04  6.15818771E-05
  8.89242960E-05 -2.90512047E-05  7.73299734E-05 -1.58601393E-04  9.75525880E-06
  1.40824486E-05 -5.36130722E-06  1.42686032E-05  4.11099637E-06 -1.03330999E-06
 -5.31172770E-02  7.83898222E-04 -2.72323374E-03 -2.00342944E-04  4.61993586E-04
  6.67097452E-04  1.51802848E-04  5.95916386E-04  8.60455183E-04 -8.85486946E-04
  3.88932119E-04  5.61669692E-04 -1.61042608E-04  6.79823903E-05 -1.71172597E-05
 -2.47168430E-05 -2.56690162E-07  6.83984661E-07  3.55079896E-04 -6.12253073E-05
 -8.84138666E-05 -4.78298619E-07  1.27209063E-06  2.61947312E-05  9.38454233E-06
  1.35553494E-05  2.14131457E-06 -5.69906828E-06  3.97687767E-06 -9.99914285E-07
  5.41929898E-02  5.27765841E-04  2.03711753E-03  1.19189033E-04  7.40002704E-04
  1.06854578E-03 -3.24072954E-04  9.57140494E-04  1.38207210E-03  4.05217819E-04
  6.19031153E-04  8.93842082E-04 -3.98867607E-06  8.33136752E-05  2.71974296E-05
  3.92814451E-05 -1.96073310E-06  5.21760693E-06  2.87782788E-04  9.87757143E-05
  1.42655091E-04 -3.16383435E-06  8.41658288E-06 -5.00992187E-05  1.49994684E-05
  2.16608960E-05 -2.98578322E-06  7.94613061E-06  6.39820803E-06 -1.60838595E-06
  9.74226445E-01 -1.95078253E-03  4.32669627E-02  1.98188818E-03  7.63937099E-04
  1.10318016E-03 -3.08988567E-04  9.95579038E-04  1.43758980E-03  2.04941551E-03
  6.29456267E-04  9.08943510E-04  4.67602191E-04  2.46765846E-04 -2.41558264E-05
 -3.48692320E-05 -1.54768205E-05  4.11894852E-05 -3.87833104E-04 -9.91530360E-05
 -1.43174499E-04 -2.92483805E-05  7.78415665E-05  1.68758761E-04  1.51648389E-05
  2.18971821E-05  6.00849513E-06 -1.59908612E-05  6.91764357E-06 -1.73883511E-06
 -3.92003473E-03  3.67475947E-01  9.68520099E-02  1.71886387E-01  5.34346654E-02
  7.71599163E-02  5.19904221E-02  6.98300709E-02  1.00834867E-01  6.32082294E-02
  4.42369835E-02  6.38759824E-02 -4.19702184E-03  7.39805229E-03  1.94864054E-03
  2.81390312E-03 -3.80083367E-05  1.01065883E-04  1.24203947E-02  7.12954213E-03
  1.02950619E-02 -5.07935745E-04  1.35181134E-03  4.08362051E-03  1.11081011E-03
  1.60392087E-03 -6.84906447E-06  1.82338580E-05  4.70028517E-04 -1.18148493E-04
 -4.28503666E-03  3.37723283E-01  8.86619994E-02  1.53257390E-01  5.41592989E-02
  7.82020677E-02 -5.84692136E-02  7.07026573E-02  1.02089161E-01 -7.09851195E-02
  4.50773481E-02  6.50922592E-02 -2.22557461E-03  7.57746164E-03 -1.94415272E-03
 -2.80728058E-03 -3.76249466E-05  1.00114370E-04  1.30865482E-02 -7.12666726E-03
 -1.02908106E-02 -5.26614978E-04  1.40143002E-03 -4.14710840E-03  1.11044420E-03
  1.60354770E-03  4.83079756E-06 -1.27905194E-05  4.83578609E-04 -1.21591796E-04
  4.49208152E-03  3.87860036E-01  1.05716912E-01  2.30454361E-01 -5.34707821E-03
 -7.72794638E-03 -9.51190433E-02 -6.86086254E-03 -9.91606050E-03 -1.14837292E-01
 -4.57510195E-03 -6.61029587E-03 -1.04056322E-01 -2.09253648E-03 -2.61080764E-04
 -3.77089854E-04  3.20511368E-05 -8.53287592E-05 -9.46444315E-03 -8.99850784E-04
 -1.29986252E-03  2.81214571E-04 -7.48273774E-04 -8.82918666E-04 -1.54236599E-04
 -2.22662561E-04 -4.02476153E-05  1.07130242E-04 -4.77566829E-05  1.19725993E-05
 -4.11028197E-03 -4.03375270E-01 -1.09865096E-01 -2.42093143E-01 -8.51554816E-03
 -1.22965709E-02 -9.87732509E-02 -1.11763303E-02 -1.61395353E-02 -1.19392968E-01
 -6.95156010E-03 -1.00330144E-02 -1.07936876E-01  2.00742360E-03  2.41557267E-04
  3.48883479E-04 -3.29002099E-05  8.75587222E-05  9.44235304E-03  9.19231563E-04
  1.32764488E-03 -2.58286050E-04  6.87479855E-04 -8.36092329E-04 -1.23506708E-04
 -1.78340132E-04 -5.39774448E-05  1.43626902E-04 -7.68945936E-05  1.93236308E-05
 -5.79323091E-03  1.16742491E-01  3.69125219E-02  2.18412483E-01 -3.59120267E-02
 -5.18569444E-02 -2.47226105E-01 -4.70704703E-02 -6.79694075E-02 -3.07658827E-01
 -3.01124980E-02 -4.34810275E-02 -1.64335202E-01 -8.85571277E-03 -1.29760170E-03
 -1.87380493E-03  5.03192570E-06 -1.33211561E-05 -2.02036146E-02 -4.76273818E-03
 -6.87738674E-03 -5.94888150E-05  1.58602826E-04 -4.30623756E-03 -7.46298761E-04
 -1.07757812E-03 -3.57244884E-04  9.50848804E-04 -3.17206315E-04  7.97510718E-05
 -5.77603645E-03  1.17479823E-01  3.71203206E-02  2.20005975E-01 -3.54902674E-02
 -5.12441910E-02  2.46408030E-01 -4.65099256E-02 -6.71553202E-02  3.06578334E-01
 -2.96462461E-02 -4.28071590E-02  1.63598090E-01 -8.88000484E-03  1.29863753E-03
  1.87529785E-03  4.28125688E-06 -1.13760533E-05 -2.02812796E-02  4.74087176E-03
  6.84571817E-03 -5.85263528E-05  1.55962421E-04  4.33862034E-03 -7.58849440E-04
 -1.09584238E-03  3.61758415E-04 -9.62868390E-04 -3.17636580E-04  7.98499373E-05
 -2.59143923E-07 -2.53801888E-06  5.88714101E-07  7.24209732E-07  2.18324543E-01
 -1.51220126E-01 -6.28530946E-08  2.84260424E-01 -1.96887574E-01 -2.37063653E-06
  1.28158524E-01 -8.87639371E-02  7.76128471E-07 -4.16563132E-07  8.43216310E-03
 -5.83978791E-03 -2.28041282E-04 -8.53089725E-05 -1.49824096E-06  2.16957923E-02
 -1.50233140E-02  1.52407145E-04  5.74590060E-05 -3.32120473E-07  1.40042586E-03
 -9.69055825E-04  5.95684875E-05  2.22873551E-05 -6.48397780E-04 -2.57809728E-03
 -5.53399410E-08  2.83769660E-06  2.65509142E-06 -3.45714910E-06  2.18250239E-01
 -1.51127546E-01  1.06863436E-07  2.84198697E-01 -1.96789865E-01  3.00239077E-06
  1.28539984E-01 -8.89889043E-02  4.44042282E-06 -5.77839874E-07 -8.44163886E-03
  5.84658675E-03 -2.60615887E-04 -9.77220549E-05 -1.52955887E-06 -2.17084577E-02
  1.50316134E-02  1.83730824E-04  6.90023573E-05  2.73985305E-07  1.41522042E-03
 -9.79724867E-04 -8.55565142E-05 -3.21610753E-05 -6.57542660E-04 -2.61608409E-03
 -2.95669236E-03 -1.03855725E-01 -2.65252780E-02  3.19880695E-03  1.23480021E-01
  1.78306559E-01 -1.00905572E-01  1.59732471E-01  2.30653426E-01 -1.23136625E-01
  1.02287480E-01  1.47706278E-01 -5.01452661E-02 -5.78877598E-03  4.40640932E-03
  6.36287852E-03  4.91000521E-05 -1.30765321E-04 -1.15399278E-02  1.61169835E-02
  2.32725537E-02  2.78638079E-04 -7.42098431E-04 -3.05493143E-03  2.39191056E-03
  3.45382582E-03 -1.06722394E-04  2.84109764E-04  1.06951355E-03 -2.68863437E-04
 -5.01760566E-03 -1.36982737E-01 -3.59828553E-02 -1.94805469E-02  1.22489950E-01
  1.76878273E-01  9.42380450E-02  1.57613974E-01  2.27595721E-01  1.15085454E-01
  1.01088306E-01  1.45974126E-01  4.46523746E-02 -5.45972138E-03 -4.44281628E-03
 -6.41556292E-03  9.64734915E-05 -2.56531768E-04 -1.09102751E-02 -1.60979098E-02
 -2.32450686E-02  2.73583569E-04 -7.28471832E-04  3.01174805E-03  2.39886408E-03
  3.46384017E-03  1.05071521E-04 -2.79548649E-04  1.03330297E-03 -2.59757569E-04
 -3.06432921E-04 -2.17950232E-03 -1.27608242E-03  9.81577087E-03  2.99722149E-01
 -4.68391689E-02 -4.29779307E-04  3.96713079E-01 -6.45608596E-02  1.09529713E-03
  2.73178094E-01 -4.02848253E-02  6.57440885E-03  2.28878667E-04 -1.20979409E-04
 -1.11983459E-04 -1.30122899E-04 -2.70655822E-04  7.31416731E-04  4.87929403E-03
 -2.60271850E-03 -8.44011216E-05 -1.96884043E-06  5.78843082E-05 -3.52472621E-03
  8.45181457E-04 -8.20643588E-07  1.00711994E-05  5.10162209E-04 -2.61339829E-03
  1.98108629E-04  3.03352269E-03  1.46508776E-03 -8.95710218E-03 -2.99359076E-01
  4.69497969E-02 -3.26409638E-04 -3.96033086E-01  6.50708100E-02  9.22040327E-04
 -2.74808580E-01  3.86051109E-02  6.39208983E-03 -1.68553572E-04 -9.00934141E-05
 -1.11186624E-04  1.46506264E-04  3.34937648E-04 -2.72391373E-04  5.51986614E-03
 -1.99720380E-03 -3.16497474E-06  1.36801680E-04 -2.92319121E-06  3.43070414E-03
 -9.31117527E-04  3.29650818E-05  1.37100610E-05 -4.93375529E-04  2.65159142E-03
 -6.35195190E-04 -4.50895498E-03 -2.63890568E-03  2.03281352E-02  4.74173891E-02
  3.00033926E-01 -8.91733840E-04  5.96956788E-02  3.93937318E-01  2.26075785E-03
  4.60916484E-02  2.76450527E-01  1.36121350E-02  4.72975597E-04 -1.75216168E-04
 -2.84192157E-04  2.49346470E-04 -3.66377131E-04  1.51057659E-03 -1.42725505E-03
  2.59571530E-03  1.57803982E-05  6.60140099E-05  1.19250771E-04 -2.05492218E-04
 -3.16254786E-03 -8.26477676E-06  1.84279048E-05  2.55734347E-03  5.56781905E-04
  4.08507567E-04  6.27480731E-03  3.03646480E-03 -1.85521205E-02 -4.71345332E-02
 -2.99482104E-01 -6.80270672E-04 -5.88182121E-02 -3.92513480E-01  1.91087954E-03
 -4.86439503E-02 -2.80504042E-01  1.32386615E-02 -3.49150537E-04 -1.64023445E-04
 -2.44852877E-04 -3.06214270E-04  4.64304610E-04 -5.63723711E-04 -4.83890950E-04
  4.11691516E-03 -1.14480392E-04  2.42707166E-04 -6.14090420E-06  7.05140230E-05
  2.94322855E-03 -1.70614775E-05 -3.66154950E-06 -2.54816194E-03 -5.79977265E-04
 -2.21113929E-02 -3.11371477E-01 -9.06526397E-02 -1.03082679E+00 -3.10087686E-03
 -4.48446980E-03 -2.85522509E-01 -1.33270799E-03 -1.94118845E-03 -4.23686132E-01
 -1.84374749E-03 -2.63945676E-03 -8.33353863E-01  1.64100242E-02 -1.05953445E-04
 -1.53783299E-04 -8.37145515E-04  2.22825847E-03  3.78353939E-03  2.28762000E-03
  3.30028675E-03 -1.76393511E-03  4.69528702E-03  2.99094589E-03  5.76825832E-04
  8.32942312E-04 -7.58744630E-04  2.01954551E-03 -1.34006784E-04  3.37058251E-05
  2.40930873E-02  3.25361276E-01  1.01608750E-01  1.01666612E+00 -9.19525733E-03
 -1.32880221E-02 -2.94417276E-01 -5.67837725E-03 -8.21925363E-03 -4.22870507E-01
  1.81065879E-02  2.61817453E-02 -8.25424286E-01 -1.88126953E-02  8.06705972E-04
  1.16605380E-03  3.27292279E-04 -8.72397758E-04 -1.14337432E-02 -3.06728349E-03
 -4.42689883E-03  2.21082039E-03 -5.88521259E-03  4.20969169E-03  8.53765006E-04
  1.23275879E-03 -8.63235928E-04  2.29796017E-03  2.25066903E-05 -5.56307753E-06
  3.54376826E-02  2.24495722E-01  1.55971191E-01 -1.69480340E-02 -1.93669034E-01
 -2.79688027E-01  1.31119955E-01 -1.51680383E-01 -2.19065751E-01 -2.31516927E-03
  2.45608860E-01  3.54718759E-01  4.51186956E-03 -3.48832628E-02 -1.09477290E-02
 -1.58064575E-02 -4.86590597E-03  1.29434785E-02 -1.27086469E-01  8.98659963E-02
  1.29780277E-01  9.55644884E-03 -2.54402583E-02 -1.87246081E-02  2.14552978E-02
  3.09819351E-02  2.10829894E-03 -5.61447406E-03 -3.92868978E-03  9.89189627E-04
  4.44390452E-02  2.53505902E-01  1.88366041E-01 -4.51260668E-01 -2.31949616E-01
 -3.34992849E-01 -1.39894779E-01 -1.63554107E-01 -2.36234208E-01  3.17502800E-02
  3.30805935E-01  4.77834218E-01  2.63540139E-01 -4.18395647E-02  1.79154636E-02
  2.58784249E-02 -9.93867498E-03  2.64272839E-02 -1.30576789E-01 -8.71729703E-02
 -1.25882982E-01  6.37213158E-03 -1.69781264E-02  1.96856090E-02  2.24563125E-02
  3.24263168E-02 -1.12261945E-03  2.99594447E-03 -1.27229983E-03  3.22483625E-04
 -1.16771442E-02  2.02312361E-02 -4.56360940E-02  2.64656597E+00  3.96730629E-03
  5.67626199E-03 -2.31439124E-01  1.38796130E-02  1.98537759E-02 -2.13118090E-01
 -2.48080619E-02 -3.55661033E-02  2.20161023E+00 -1.96486396E-02  2.33910816E-04
  3.36366081E-04  5.33916501E-05 -1.42104841E-04  3.42114779E-01  7.07870892E-04
  1.00115774E-03 -6.20795418E-04  1.65235281E-03  3.99328674E-02 -4.69992622E-05
 -6.82883274E-05 -2.67414845E-04  7.11709867E-04  2.20505655E-05 -5.66424927E-06
  1.15782200E-02 -1.92319333E-02  4.57467456E-02 -2.65440393E+00  2.86263458E-03
  4.08019574E-03 -2.28980223E-01  8.54127354E-03  1.21408385E-02 -2.02906851E-01
 -4.42307213E-03 -6.11476996E-03  2.17957624E+00  1.91299867E-02  5.48546230E-05
  8.06279635E-05 -5.42569253E-05  1.44356256E-04 -3.41602761E-01 -1.57861288E-03
 -2.25949663E-03  5.94361144E-04 -1.58190145E-03  3.96872262E-02  1.24508576E-04
  1.79484013E-04 -2.67477230E-04  7.11890967E-04  2.27309660E-05 -5.83720476E-06
 -2.44628196E-07  5.46250881E-06 -1.00554938E-05  5.30581279E-04 -1.19431689E-01
  8.26896390E-02 -5.51510350E-05 -4.31163592E-01  2.98527696E-01 -5.33025050E-05
  5.98634910E-01 -4.14493586E-01  4.42564694E-04 -3.73150836E-06 -3.25286127E-03
  2.25228578E-03  3.24586252E-05  1.21167823E-05  7.36258630E-05 -4.60813482E-02
  3.19051031E-02 -9.04124205E-05 -3.35907176E-05  8.44032154E-06 -7.48969846E-04
  5.18400019E-04 -6.93733412E-06 -2.41779202E-06  1.38746979E-04  5.52201334E-04
  4.59597554E-06  6.15992840E-06  1.19892090E-05 -5.41095386E-04 -1.18382457E-01
  8.19629636E-02 -5.47062703E-05 -4.27690692E-01  2.96118538E-01 -5.41600799E-05
  5.88448869E-01 -4.07417446E-01  4.47135003E-04  3.74159371E-06  3.13235226E-03
 -2.16854464E-03  4.73561775E-05  1.77470135E-05 -7.25891974E-05  4.65434306E-02
 -3.22259005E-02 -1.16691637E-04 -4.41888262E-05  8.49187262E-06 -8.40594407E-04
  5.82012656E-04  1.20162308E-05  4.74608129E-06  1.40345776E-04  5.58524541E-04
 -2.10848152E-02  5.89598126E-03  1.41724956E-03 -3.34166669E-01 -6.27364642E-03
 -9.06010512E-03 -1.11595240E-01 -2.13395093E-02 -3.08182448E-02 -4.88906655E-01
  2.90744887E-02  4.19922383E-02  1.00850517E+00 -2.69707573E-02 -1.97936409E-04
 -2.85975666E-04 -9.58394421E-05  2.55082505E-04 -6.82627516E-04 -2.71888685E-03
 -3.92611521E-03  1.47365684E-04 -3.92160896E-04  1.03610113E-02 -4.91109177E-05
 -7.09280880E-05 -1.06009644E-04  2.82141924E-04 -3.87700772E-05  9.74296538E-06
 -2.13891398E-02  6.13932898E-03  5.75682998E-04 -2.86855704E-01 -5.82762276E-03
 -8.41536873E-03  1.15044253E-01 -1.98533615E-02 -2.86695285E-02  4.91546536E-01
  2.46772283E-02  3.56332519E-02 -1.04638556E+00 -2.73109598E-02  1.32922771E-04
  1.92014677E-04 -9.32119528E-05  2.48107097E-04  5.46353349E-03  2.93810851E-03
  4.24293711E-03  1.45967903E-04 -3.88414635E-04 -1.10735087E-02 -9.06914750E-05
 -1.31074476E-04  1.10767656E-04 -2.94818575E-04 -3.88064889E-05  9.75224929E-06
  6.82494648E-06  1.91196184E-05  3.77141123E-06 -3.56505341E-05 -1.18683419E-01
  8.22124708E-02  1.35054496E-06 -4.10872077E-01  2.84613768E-01 -6.97899986E-07
  1.09498905E+00 -7.58470545E-01 -8.40623384E-06 -1.08593126E-07 -1.35201592E-02
  9.36484566E-03  3.19111460E-05  1.19178459E-05 -9.63291332E-07  5.57539946E-02
 -3.86122460E-02  1.85608803E-05  6.81856676E-06 -2.11501754E-07  1.06575583E-02
 -7.38168544E-03  2.51831966E-06  9.25893432E-07  1.22946518E-04  4.88848770E-04
  6.44855815E-06  1.76280850E-05  2.73799283E-06 -5.32857643E-06  1.19740937E-01
 -8.29297186E-02  3.71643902E-06  4.15117718E-01 -2.87498752E-01  6.23689317E-06
 -1.10051197E+00  7.62222383E-01 -1.58813148E-05 -2.16509895E-07 -1.35770624E-02
  9.40378410E-03 -4.64291562E-05 -1.73749066E-05  4.34190481E-06  5.53550241E-02
 -3.83458544E-02  1.52329900E-05  5.62266795E-06 -4.08740802E-07 -1.06282918E-02
  7.36166751E-03  3.16728550E-08 -1.08915885E-08 -1.26730116E-04 -5.04061411E-04
 -1.88958432E-02 -5.53048955E-02 -1.05678905E-02  7.68687873E-02 -9.29292644E-02
 -1.34169060E-01 -4.53267673E-03 -3.16772748E-01 -4.57349894E-01 -2.88169913E-03
  7.94888359E-01  1.14762778E+00  1.36022944E-02  1.19727372E-04 -9.50225343E-03
 -1.37188291E-02 -3.07794162E-05  8.20722348E-05 -3.29341599E-04  3.13424035E-02
  4.52469958E-02 -1.10662402E-04  2.94747288E-04  3.32459437E-04  6.99053882E-03
  1.00923594E-02 -1.81787921E-05  4.84132907E-05 -5.36399070E-04  1.34873851E-04
 -1.99981175E-02 -5.38855008E-02 -8.57226875E-03  3.94128050E-02  7.53679856E-02
  1.08807467E-01 -9.93285455E-03  2.52440894E-01  3.64441190E-01 -1.69832704E-02
 -7.10427367E-01 -1.02564555E+00  2.72822869E-02  3.51798995E-04 -8.95028628E-03
 -1.29216999E-02  1.24561009E-05 -3.32646097E-05 -1.16089446E-02  4.35426028E-02
  6.28661314E-02  2.12213816E-05 -5.57052381E-05  7.82824404E-04 -7.26838496E-03
 -1.04935873E-02 -7.06314185E-06  1.87979282E-05  4.32234422E-04 -1.08720057E-04
  3.29368805E-01  9.12893742E-01  1.55209702E-01 -9.51517438E-01  1.35354830E-02
  1.95437393E-02 -3.50797020E-02  5.44400988E-02  7.86102987E-02 -4.97403916E-02
 -4.08841778E-02 -5.90113271E-02 -3.96999343E-02  2.44402855E-03 -2.22691723E-05
 -3.26145414E-05  5.14912881E-04 -1.37045546E-03  1.20921864E-01  2.09357447E-02
  3.02377943E-02 -6.61228834E-04  1.75859161E-03  1.85519613E-03  9.98000182E-04
  1.44171002E-03  1.48961986E-05 -3.97448271E-05  7.21703203E-05 -1.81221793E-05
  3.30592429E-01  9.17503334E-01  1.55628965E-01 -9.19446251E-01  2.72536171E-02
  3.93648659E-02  3.85483197E-02  1.02255979E-01  1.47697401E-01  5.45070405E-02
 -1.65648855E-01 -2.39278108E-01  6.91254139E-03  2.06377863E-03 -1.47072861E-03
 -2.12447374E-03  4.88314635E-04 -1.29990604E-03  1.26523852E-01 -1.42307400E-02
 -2.05488569E-02 -9.43909447E-04  2.51039624E-03 -2.33034870E-03 -2.18718866E-04
 -3.16301566E-04 -1.57582521E-07  5.62323456E-07  1.87798659E-04 -4.71551620E-05
 -2.97583615E-01 -7.97383019E-01 -2.31841169E-01  3.71291747E+00 -1.81142396E-02
 -2.61573503E-02 -2.16884422E-02  4.07518044E-02  5.88619686E-02  3.93822439E-01
 -9.62610447E-02 -1.39018557E-01  1.58443076E+00 -1.80372076E-02  3.69784919E-03
  5.34010347E-03 -1.32705342E-03  3.53369672E-03  1.89568479E-01  2.35320623E-01
  3.39843972E-01  3.72023277E-02 -9.91343070E-02  6.16116337E-02 -1.70051291E-03
 -2.45576097E-03  9.49985936E-04 -2.53204544E-03 -5.95817723E-05  1.51292701E-05
  2.49675645E-01  6.71419323E-01  2.27818341E-01 -3.56211228E+00 -1.45136176E-02
 -2.09547425E-02 -4.88193799E-02  6.41435156E-02  9.26590987E-02  3.72559683E-01
 -1.52433804E-01 -2.20184840E-01  1.59558733E+00  8.99951268E-03 -4.11294925E-03
 -5.93972495E-03 -7.27282683E-04  1.93666483E-03 -3.19628955E-01 -2.27477447E-01
 -3.28509968E-01  2.76483682E-02 -7.37195761E-02  5.99428796E-02 -2.44031624E-03
 -3.52472613E-03 -8.82680720E-04  2.35323092E-03  1.63203840E-04 -4.07796295E-05
 -2.92696177E-01 -7.84634875E-01 -2.59871527E-01  4.13701874E+00  1.76747410E-02
  2.55242964E-02 -5.32572727E-02 -2.33210025E-02 -3.36832647E-02  4.26722170E-01
  7.10771932E-02  1.02644947E-01  1.86053965E+00 -1.29375731E-02 -3.24978132E-03
 -4.69308095E-03  6.69316378E-04 -1.78465495E-03  3.54709781E-01 -2.05879696E-01
 -2.97327147E-01 -4.69985300E-02  1.25282687E-01  6.98795410E-02  1.87516128E-03
  2.70800725E-03 -1.30384140E-03  3.47557565E-03  4.77869371E-05 -1.21378690E-05
  3.26674524E-01  8.73828445E-01  2.61692252E-01 -4.24642800E+00  1.68146158E-02
  2.42801222E-02 -3.25803974E-02 -3.69250001E-02 -5.33428223E-02  4.44470685E-01
  1.09812205E-01  1.58619424E-01  1.84907848E+00  1.97033920E-02  3.51578300E-03
  5.07735265E-03  1.78427501E-03 -4.75150939E-03 -2.54468772E-01  2.00480652E-01
  2.89524835E-01 -5.13824999E-02  1.36959420E-01  7.11451909E-02  2.35108347E-03
  3.39584427E-03  1.32071637E-03 -3.52073153E-03 -1.00755906E-04  2.51166303E-05
  2.45874173E-06  6.06346999E-06  6.40167855E-07 -1.37335598E-05 -9.25906955E-06
  6.76023732E-06  1.78192209E-07 -9.95733800E-05  6.94772602E-05 -8.76930891E-07
  5.60952876E-05 -3.87071232E-05 -5.71462247E-06  3.44562604E-07  1.06460322E-05
 -7.36739506E-06 -1.09949914E-02 -4.12486031E-03 -1.20537499E-06 -3.00144729E-05
  2.07369170E-05  6.11011146E-01  2.29225308E-01 -2.06561843E-07  4.71885630E-06
 -3.23703191E-06  1.52562663E-02  5.72349519E-03 -1.14946543E-05 -4.52939000E-05
  7.70823159E-07  1.60859956E-06 -7.48069833E-07  9.04996757E-06  1.55249541E-06
 -1.08774123E-06  1.61763834E-08 -1.61059719E-04  1.11173320E-04 -1.58289340E-06
  1.14092382E-04 -7.92763076E-05 -4.24632780E-06  2.51057729E-07 -5.50764840E-06
  3.81288401E-06 -1.10041271E-02 -4.12828673E-03  4.61342254E-07  2.31487251E-05
 -1.56397317E-05  6.08852654E-01  2.28415363E-01 -1.80676203E-07  1.26928508E-05
 -8.75283480E-06 -1.52786432E-02 -5.73188658E-03 -1.87049149E-05 -7.35794728E-05
  1.99472385E-02  5.44645380E-02  2.39937435E-02 -3.69635835E-01 -8.31770952E-03
 -1.20108690E-02  7.55934855E-03  3.02204596E-03  4.36733468E-03 -3.76527745E-02
 -2.21141585E-02 -3.19360190E-02 -1.76165461E-01 -1.52063313E-04  1.31591974E-03
  1.90036044E-03  3.93948066E-03 -1.05011906E-02 -4.58803028E-02  8.28781890E-02
  1.19690098E-01 -2.21306166E-01  5.89904982E-01 -6.38814281E-03 -8.92372917E-04
 -1.28867193E-03 -5.49884845E-03  1.46574479E-02  2.87033543E-05 -7.28545778E-06
 -3.68639085E-02 -9.73356627E-02 -2.39713144E-02  4.13425311E-01 -7.75761519E-03
 -1.12019606E-02  9.17153356E-04  8.03390655E-03  1.16078394E-02 -4.26678345E-02
 -3.50272891E-02 -5.05959343E-02 -1.74411189E-01 -3.34572545E-03 -1.39998396E-03
 -2.02178794E-03  3.79825651E-03 -1.01255112E-02  1.33112964E-02 -8.09225074E-02
 -1.16863525E-01 -2.20772748E-01  5.88478805E-01 -6.89103358E-03 -1.05620650E-03
 -1.52541857E-03  5.51052837E-03 -1.46884906E-02  1.10309213E-04 -2.78745853E-05
  5.94422738E-07  1.90914990E-06  6.17070240E-07 -6.52011080E-06 -6.81316261E-02
  4.71773343E-02  5.59098445E-07 -1.26499245E-01  8.75940591E-02 -3.37256192E-07
  2.01360107E-02 -1.39434565E-02 -2.52617302E-06  1.66734287E-08  6.81006255E-03
 -4.71553474E-03  2.12889889E-05  8.00096591E-06 -1.04615840E-06  4.93095824E-01
 -3.41442798E-01 -3.70105603E-05 -1.43198050E-05 -7.34936831E-08 -9.39777215E-03
  6.50746753E-03 -4.39820379E-05 -1.64433126E-05 -5.36748926E-06 -2.13449475E-05
 -7.17343412E-07 -2.07425941E-06 -4.99564758E-07  7.04605422E-06 -6.82614687E-02
  4.72670420E-02  5.36512208E-08 -1.26802145E-01  8.78037342E-02 -5.50646647E-07
  1.94270992E-02 -1.34533590E-02 -2.56400847E-06 -3.58310174E-08 -6.77721803E-03
  4.69277280E-03  2.08190690E-05  7.79911439E-06  4.44564550E-08 -4.91905330E-01
  3.40618580E-01  7.15212609E-05  2.65703665E-05 -2.55916560E-07 -9.40698640E-03
  6.51382989E-03  7.35051372E-05  2.74765492E-05 -2.97099894E-06 -1.18371384E-05
 -7.95432610E-03 -1.65659380E-02 -5.23127207E-03  1.41903253E-01 -6.28063001E-04
 -9.06471148E-04  2.78866872E-03 -3.91401293E-03 -5.65202163E-03  2.42289765E-02
  3.01872744E-03  4.35954051E-03  6.78065451E-02 -9.22998663E-04  7.10736782E-05
  1.02654045E-04  3.16903523E-03 -8.42294720E-03  2.63091572E-02  4.11787659E-03
  5.94638362E-03 -2.77511553E-01  7.37597013E-01  3.09508336E-03 -1.89017844E-04