dsfdsf                                                                  
SP        RPBEPBE                                                     Gen                 
Number of atoms                            I                5
Info1-9                                    I   N=           9
          24          24           0           0           0         111
           1          18         902
Full Title                                 C   N=           1
dsfdsf      
Route                                      C   N=           6
#p pbepbe/gen pop=full scf=xqc 5d 7f gfinput pseudo=read iop
(3/33=3)    
Charge                                     I                2
Multiplicity                               I                1
Number of electrons                        I               42
Number of alpha electrons                  I               21
Number of beta electrons                   I               21
Number of basis functions                  I               92
Number of independent functions            I               92
Number of point charges in /Mol/           I                0
Number of translation vectors              I                0
Atomic numbers                             I   N=           5
          44           6           6           8           8
Nuclear charges                            R   N=           5
  1.60000000E+01  6.00000000E+00  6.00000000E+00  8.00000000E+00  8.00000000E+00
Current cartesian coordinates              R   N=          15
 -1.30104261E-18  2.85111290E-18  6.08513980E-03 -8.76035355E-16  3.59414108E+00
 -4.50316712E-03  1.78503046E-15 -3.59414108E+00 -4.50316712E-03 -1.64451786E-15
  6.59944299E+00 -1.33567591E-02  2.84754859E-15 -6.59944299E+00 -1.33567591E-02
Number of symbols in /Mol/                 I                0
Force Field                                I                0
Atom Types                                 C   N=           5
                                                            
Int Atom Types                             I   N=           5
           0           0           0           0           0
MM charges                                 R   N=           5
  0.00000000E+00  0.00000000E+00  0.00000000E+00  0.00000000E+00  0.00000000E+00
Integer atomic weights                     I   N=           5
         102          12          12          16          16
Real atomic weights                        R   N=           5
  1.01903700E+02  1.20000000E+01  1.20000000E+01  1.59949146E+01  1.59949146E+01
Atom fragment info                         I   N=           5
           0           0           0           0           0
Atom residue num                           I   N=           5
           0           0           0           0           0
Nuclear spins                              I   N=           5
           0           0           0           0           0
Nuclear ZEff                               R   N=           5
 -2.21760000E+02 -3.60000000E+00 -3.60000000E+00 -5.60000000E+00 -5.60000000E+00
Nuclear ZNuc                               R   N=           5
  4.40000000E+01  6.00000000E+00  6.00000000E+00  8.00000000E+00  8.00000000E+00
Nuclear QMom                               R   N=           5
  0.00000000E+00  0.00000000E+00  0.00000000E+00  0.00000000E+00  0.00000000E+00
Nuclear GFac                               R   N=           5
  0.00000000E+00  0.00000000E+00  0.00000000E+00  0.00000000E+00  0.00000000E+00
MicOpt                                     I   N=           5
          -1          -1          -1          -1          -1
Number of residues                         I                0
Number of secondary structures             I                0
SymInf integers                            I   N=          26
           2           4           1           1           1          -1
          -1           1          -1           1           1           1
          -1           1           0           0           0           0
           0           0           0           0           0           0
           0           0
RotTr to input orientation                 R   N=          12
 -3.29744859E-01 -3.29744859E-01  8.84611019E-01  7.05260961E-01 -7.08946465E-01
 -1.37379695E-03  6.27594857E-01  6.23428615E-01  4.66327629E-01 -3.81900243E-03
 -3.79365029E-03 -2.83766881E-03
Number of contracted shells                I               38
Number of primitive shells                 I               69
Pure/Cartesian d shells                    I                0
Pure/Cartesian f shells                    I                0
Highest angular momentum                   I                2
Largest degree of contraction              I                5
Shell types                                I   N=          38
           0           0           0           0           0           0
           1           1           1           1           1          -2
          -2          -2           0           0           0           1
           1          -2           0           0           0           1
           1          -2           0           0           0           1
           1          -2           0           0           0           1
           1          -2
Number of primitives per shell             I   N=          38
           3           1           1           1           1           1
           2           2           1           1           1           4
           1           1           5           1           1           3
           1           1           5           1           1           3
           1           1           5           1           1           3
           1           1           5           1           1           3
           1           1
Shell to atom map                          I   N=          38
           1           1           1           1           1           1
           1           1           1           1           1           1
           1           1           2           2           2           2
           2           2           3           3           3           3
           3           3           4           4           4           4
           4           4           5           5           5           5
           5           5
Primitive exponents                        R   N=          69
  7.93657000E+00  5.98424500E+00  4.88222000E+00  1.14462400E+00  5.23017000E-01
  1.17573000E-01  4.80500000E-02  1.60000000E-02  3.75460900E+00  2.91657100E+00
  1.04867500E+00  5.07320000E-01  2.67398000E-01  6.97480000E-02  2.29270000E-02
  6.00991300E+00  2.10428000E+00  9.21500000E-01  3.88598000E-01  1.52836000E-01
  5.10000000E-02  1.23840169E+03  1.86290050E+02  4.22511764E+01  1.16765579E+01
  3.59305065E+00  4.02451470E-01  1.30901830E-01  9.46809706E+00  2.01035451E+00
  5.47710050E-01  1.52686140E-01  8.00000000E-01  1.23840169E+03  1.86290050E+02
  4.22511764E+01  1.16765579E+01  3.59305065E+00  4.02451470E-01  1.30901830E-01
  9.46809706E+00  2.01035451E+00  5.47710050E-01  1.52686140E-01  8.00000000E-01
  2.26617678E+03  3.40870102E+02  7.73631352E+01  2.14796449E+01  6.65894331E+00
  8.09759760E-01  2.55307720E-01  1.77215043E+01  3.86355054E+00  1.04809209E+00
  2.76415440E-01  1.20000000E+00  2.26617678E+03  3.40870102E+02  7.73631352E+01
  2.14796449E+01  6.65894331E+00  8.09759760E-01  2.55307720E-01  1.77215043E+01
  3.86355054E+00  1.04809209E+00  2.76415440E-01  1.20000000E+00
Contraction coefficients                   R   N=          69
 -1.11966553E+00  1.44532921E+00  6.26165262E-01  1.00000000E+00  1.00000000E+00
  1.00000000E+00  1.00000000E+00  1.00000000E+00 -4.72265642E+00  4.99090832E+00
  7.28546655E-01  3.03904281E-01  1.00000000E+00  1.00000000E+00  1.00000000E+00
 -3.27159996E-02  2.65739197E-01  4.81239795E-01  4.09977795E-01  1.00000000E+00
  1.00000000E+00  5.51736180E-03  4.10888293E-02  1.82253822E-01  4.68284597E-01
  4.45758170E-01  1.00000000E+00  1.00000000E+00  5.68883296E-02  3.12940593E-01
  7.60650166E-01  1.00000000E+00  1.00000000E+00  5.51736180E-03  4.10888293E-02
  1.82253822E-01  4.68284597E-01  4.45758170E-01  1.00000000E+00  1.00000000E+00
  5.68883296E-02  3.12940593E-01  7.60650166E-01  1.00000000E+00  1.00000000E+00
 -5.38934940E-03 -4.02347222E-02 -1.80081842E-01 -4.68288577E-01 -4.46926170E-01
  1.00000000E+00  1.00000000E+00  6.26302441E-02  3.33311388E-01  7.41486382E-01
  1.00000000E+00  1.00000000E+00 -5.38934940E-03 -4.02347222E-02 -1.80081842E-01
 -4.68288577E-01 -4.46926170E-01  1.00000000E+00  1.00000000E+00  6.26302441E-02
  3.33311388E-01  7.41486382E-01  1.00000000E+00  1.00000000E+00
Coordinates of each shell                  R   N=         114
 -5.06689673E-19  1.56889068E-18  6.08513980E-03 -5.06689673E-19  1.56889068E-18
  6.08513980E-03 -5.06689673E-19  1.56889068E-18  6.08513980E-03 -5.06689673E-19
  1.56889068E-18  6.08513980E-03 -5.06689673E-19  1.56889068E-18  6.08513980E-03
 -5.06689673E-19  1.56889068E-18  6.08513980E-03 -5.06689673E-19  1.56889068E-18
  6.08513980E-03 -5.06689673E-19  1.56889068E-18  6.08513980E-03 -5.06689673E-19
  1.56889068E-18  6.08513980E-03 -5.06689673E-19  1.56889068E-18  6.08513980E-03
 -5.06689673E-19  1.56889068E-18  6.08513980E-03 -5.06689673E-19  1.56889068E-18
  6.08513980E-03 -5.06689673E-19  1.56889068E-18  6.08513980E-03 -5.06689673E-19
  1.56889068E-18  6.08513980E-03 -3.98529866E-16  3.59414108E+00 -4.50316712E-03
 -3.98529866E-16  3.59414108E+00 -4.50316712E-03 -3.98529866E-16  3.59414108E+00
 -4.50316712E-03 -3.98529866E-16  3.59414108E+00 -4.50316712E-03 -3.98529866E-16
  3.59414108E+00 -4.50316712E-03 -3.98529866E-16  3.59414108E+00 -4.50316712E-03
  1.06151109E-15 -3.59414108E+00 -4.50316712E-03  1.06151109E-15 -3.59414108E+00
 -4.50316712E-03  1.06151109E-15 -3.59414108E+00 -4.50316712E-03  1.06151109E-15
 -3.59414108E+00 -4.50316712E-03  1.06151109E-15 -3.59414108E+00 -4.50316712E-03
  1.06151109E-15 -3.59414108E+00 -4.50316712E-03 -7.31202457E-16  6.59944299E+00
 -1.33567591E-02 -7.31202457E-16  6.59944299E+00 -1.33567591E-02 -7.31202457E-16
  6.59944299E+00 -1.33567591E-02 -7.31202457E-16  6.59944299E+00 -1.33567591E-02
 -7.31202457E-16  6.59944299E+00 -1.33567591E-02 -7.31202457E-16  6.59944299E+00
 -1.33567591E-02  1.94826421E-15 -6.59944299E+00 -1.33567591E-02  1.94826421E-15
 -6.59944299E+00 -1.33567591E-02  1.94826421E-15 -6.59944299E+00 -1.33567591E-02
  1.94826421E-15 -6.59944299E+00 -1.33567591E-02  1.94826421E-15 -6.59944299E+00
 -1.33567591E-02  1.94826421E-15 -6.59944299E+00 -1.33567591E-02
Num ILSW                                   I              100
ILSW                                       I   N=         100
           0           0           0           0           2           0
           0           0           0           0        1009          -1
           5           0           0           0           0           0
           0           0           0           0           0           0
           1           0           0           0           0           0
           0           0      100000           0          -1           0
           0           0           0           0           0           0
           0           0           0           1           0           0
           0 -2000000000           1           0           0           0
           0           0           4          52           0           0
           0           0           0           0           0           0
           0           0           0           5           0           1
           0           0           0           0           0           0
           0           0           0           0           0           0
           0           0           0           0           0           0
           0           0           0           0           0           0
           0           0           0           0
Num RLSW                                   I               52
RLSW                                       R   N=          52
  1.00000000E+00  1.00000000E+00  1.00000000E+00  1.00000000E+00  0.00000000E+00
  0.00000000E+00  0.00000000E+00  1.00000000E+00  0.00000000E+00  0.00000000E+00
  0.00000000E+00  0.00000000E+00  1.00000000E+00  0.00000000E+00  0.00000000E+00
  0.00000000E+00  0.00000000E+00  1.00000000E+00  0.00000000E+00  0.00000000E+00
  0.00000000E+00  0.00000000E+00  1.00000000E+00  0.00000000E+00  0.00000000E+00
  0.00000000E+00  0.00000000E+00  1.00000000E+00  0.00000000E+00  0.00000000E+00
  0.00000000E+00  0.00000000E+00  1.00000000E+00  0.00000000E+00  0.00000000E+00
  0.00000000E+00  0.00000000E+00  0.00000000E+00  1.00000000E+00  1.00000000E+00
  0.00000000E+00  1.00000000E+00  0.00000000E+00  0.00000000E+00  0.00000000E+00
  0.00000000E+00  0.00000000E+00  0.00000000E+00  0.00000000E+00  0.00000000E+00
  0.00000000E+00  0.00000000E+00
ECP-MxAtEC                                 I           250000
ECP-MaxLECP                                I               10
ECP-MaxAtL                                 I          2250000
ECP-MxTECP                                 I         11250000
ECP-LenNCZ                                 I                9
ECP-KFirst                                 I   N=          50
           1           0           0           0           0           2
           0           0           0           0           4           0
           0           0           0           6           0           0
           0           0           8           0           0           0
           0           0           0           0           0           0
           0           0           0           0           0           0
           0           0           0           0           0           0
           0           0           0           0           0           0
           0           0
ECP-KLast                                  I   N=          50
           1           0           0           0           0           3
           0           0           0           0           5           0
           0           0           0           7           0           0
           0           0           9           0           0           0
           0           0           0           0           0           0
           0           0           0           0           0           0
           0           0           0           0           0           0
           0           0           0           0           0           0
           0           0
ECP-LMax                                   I   N=           5
           4           0           0           0           0
ECP-LPSkip                                 I   N=           5
           0           1           1           1           1
ECP-RNFroz                                 R   N=           5
  2.80000000E+01  0.00000000E+00  0.00000000E+00  0.00000000E+00  0.00000000E+00
ECP-NLP                                    I   N=           9
           2           2           2           2           2           2
           2           2           2
ECP-CLP1                                   R   N=           9
  0.00000000E+00  2.09822971E+02  3.06547260E+01  1.46336182E+02  2.41278770E+01
  6.75158970E+01  9.87010400E+00 -2.83406160E+01 -4.94462900E+00
ECP-CLP2                                   R   N=           9
  0.00000000E+00  0.00000000E+00  0.00000000E+00  0.00000000E+00  0.00000000E+00
  0.00000000E+00  0.00000000E+00  0.00000000E+00  0.00000000E+00
ECP-ZLP                                    R   N=           9
  1.00000000E+00  1.11052690E+01  5.41474500E+00  9.77127100E+00  5.07399100E+00
  7.67142300E+00  4.13656500E+00  1.13600000E+01  5.68000000E+00
MxBond                                     I                2
NBond                                      I   N=           5
           2           2           2           1           1
IBond                                      I   N=          10
           2           3           1           4           1           5
           2           0           3           0
RBond                                      R   N=          10
  1.00000000E+00  1.00000000E+00  1.00000000E+00  1.00000000E+00  1.00000000E+00
  1.00000000E+00  1.00000000E+00  0.00000000E+00  1.00000000E+00  0.00000000E+00
Virial Ratio                               R      2.244105660088942E+00
SCF Energy                                 R     -3.198771765048560E+02
Total Energy                               R     -3.198771765048560E+02
RMS Density                                R      6.562470489368216E-13
Job Status                                 I                1
Nuclear derivative order                   I                0
External E-field                           R   N=          35
  0.00000000E+00  0.00000000E+00  0.00000000E+00  0.00000000E+00  0.00000000E+00
  0.00000000E+00  0.00000000E+00  0.00000000E+00  0.00000000E+00  0.00000000E+00
  0.00000000E+00  0.00000000E+00  0.00000000E+00  0.00000000E+00  0.00000000E+00
  0.00000000E+00  0.00000000E+00  0.00000000E+00  0.00000000E+00  0.00000000E+00
  0.00000000E+00  0.00000000E+00  0.00000000E+00  0.00000000E+00  0.00000000E+00
  0.00000000E+00  0.00000000E+00  0.00000000E+00  0.00000000E+00  0.00000000E+00
  0.00000000E+00  0.00000000E+00  0.00000000E+00  0.00000000E+00  0.00000000E+00
IOpCl                                      I                0
IROHF                                      I                0
Alpha Orbital Energies                     R   N=          92
 -1.93099888E+01 -1.93098967E+01 -1.05230054E+01 -1.05229814E+01 -3.45629990E+00
 -2.34325069E+00 -2.32970944E+00 -2.32952373E+00 -1.30030235E+00 -1.29996177E+00
 -1.03967741E+00 -9.66271861E-01 -8.53964841E-01 -8.10044895E-01 -8.08958638E-01
 -7.92811330E-01 -7.47359138E-01 -7.45566990E-01 -7.43803719E-01 -7.23579324E-01
 -7.19705734E-01 -7.47980274E-01 -6.92547509E-01 -6.30444015E-01 -6.27648369E-01
 -5.66032862E-01 -5.64062168E-01 -4.90893153E-01 -4.24089374E-01 -3.79999732E-01
 -3.79170744E-01 -3.05583674E-01 -2.71843540E-01 -2.27097011E-01 -2.24669661E-01
 -2.06631525E-01 -2.04295200E-01 -2.03664370E-01 -1.92467434E-01 -1.92190006E-01
 -1.56859144E-01 -1.48004266E-01 -9.66394206E-02  7.39442724E-02  7.51170559E-02
  7.66389698E-02  7.95515368E-02  1.05008379E-01  1.23165168E-01  1.24431819E-01
  1.60624449E-01  1.61241249E-01  2.09403357E-01  2.31273012E-01  2.32478040E-01
  2.85620638E-01  2.96232371E-01  4.51041643E-01  4.56925709E-01  5.26331822E-01
  5.29049718E-01  5.43398903E-01  5.61534637E-01  5.91225731E-01  5.93818361E-01
  1.04862666E+00  1.07402475E+00  1.10135871E+00  1.10153568E+00  1.11744887E+00
  1.11969257E+00  1.12434292E+00  1.12437817E+00  1.23058850E+00  1.23272001E+00
  1.41584383E+00  1.47711885E+00  2.03170823E+00  2.07325758E+00  2.07329094E+00
  2.07358925E+00  2.07363107E+00  2.17556667E+00  2.17688454E+00  2.17967514E+00
  2.18099910E+00  2.58286353E+00  2.65493839E+00  3.31387161E+01  3.31388837E+01
  3.42107249E+01  4.53003453E+01
Alpha MO coefficients                      R   N=        8464
  8.98464370E-04 -5.81942318E-03  1.24330791E-02 -4.51492908E-02 -3.36840490E-03
  7.25291414E-04  0.00000000E+00  0.00000000E+00  7.49512515E-07  0.00000000E+00
  0.00000000E+00 -1.74758348E-05  0.00000000E+00  0.00000000E+00  6.37468469E-05
  0.00000000E+00  0.00000000E+00  5.53082681E-05  0.00000000E+00  0.00000000E+00
 -1.44005318E-05  3.92686284E-05  0.00000000E+00  0.00000000E+00  6.80423058E-05
  0.00000000E+00  8.10808631E-03  0.00000000E+00  0.00000000E+00  1.40436557E-02
  0.00000000E+00  1.79035291E-04  0.00000000E+00  0.00000000E+00  3.10207899E-04
  0.00000000E+00  4.88225753E-05 -7.63757815E-04  1.53345295E-02  0.00000000E+00
 -3.91531102E-04  2.19952813E-06  0.00000000E+00 -2.57297760E-02  9.75737748E-05
 -2.44384047E-05  0.00000000E+00 -5.01747412E-06 -4.22317698E-05  0.00000000E+00
  4.88225753E-05 -7.63757815E-04  1.53345295E-02  0.00000000E+00  3.91531102E-04
  2.19952813E-06  0.00000000E+00  2.57297760E-02  9.75737748E-05 -2.44384047E-05
  0.00000000E+00  5.01747412E-06 -4.22317698E-05  0.00000000E+00  6.99043995E-01
 -3.03518670E-02  2.47457117E-02  0.00000000E+00  1.56001085E-03 -3.02136775E-06
  0.00000000E+00 -7.30216808E-03  1.52996543E-05 -1.87606733E-04  0.00000000E+00
 -1.67558239E-06 -3.40539646E-04  0.00000000E+00  6.99043995E-01 -3.03518670E-02
  2.47457117E-02  0.00000000E+00 -1.56001085E-03 -3.02136775E-06  0.00000000E+00
  7.30216808E-03  1.52996543E-05 -1.87606733E-04  0.00000000E+00  1.67558239E-06
 -3.40539646E-04  0.00000000E+00  0.00000000E+00  0.00000000E+00  0.00000000E+00
  0.00000000E+00  0.00000000E+00  0.00000000E+00  0.00000000E+00 -5.41328010E-05
  0.00000000E+00  0.00000000E+00  1.52659706E-03  0.00000000E+00  0.00000000E+00
 -6.46332982E-03  0.00000000E+00  0.00000000E+00  1.94678168E-04  0.00000000E+00
  0.00000000E+00 -3.32965072E-04  0.00000000E+00  0.00000000E+00  0.00000000E+00
  4.21050566E-06  0.00000000E+00  0.00000000E+00  0.00000000E+00  0.00000000E+00
  1.13738841E-06  0.00000000E+00  0.00000000E+00  0.00000000E+00  0.00000000E+00
 -1.38744416E-06  0.00000000E+00  0.00000000E+00  1.53611243E-05 -4.03198181E-04
 -3.38740905E-03  0.00000000E+00 -3.18329475E-04  6.28691503E-07  0.00000000E+00
 -9.18703747E-03  2.90415942E-05  6.38409454E-06  0.00000000E+00 -5.57102222E-07
  1.11954801E-05  0.00000000E+00 -1.53611243E-05  4.03198181E-04  3.38740905E-03
  0.00000000E+00 -3.18329475E-04 -6.28691503E-07  0.00000000E+00 -9.18703747E-03
 -2.90415942E-05 -6.38409454E-06  0.00000000E+00 -5.57102222E-07 -1.11954801E-05
  0.00000000E+00  6.99161015E-01 -2.90411196E-02  1.88931501E-02  0.00000000E+00
  1.40603785E-03 -3.93717174E-06  0.00000000E+00 -5.08468659E-03  1.45837670E-05
 -1.47500558E-04  0.00000000E+00 -2.02491480E-06 -2.71103354E-04  0.00000000E+00
 -6.99161015E-01  2.90411196E-02 -1.88931501E-02  0.00000000E+00  1.40603785E-03
  3.93717174E-06  0.00000000E+00 -5.08468659E-03 -1.45837670E-05  1.47500558E-04
  0.00000000E+00 -2.02491480E-06  2.71103354E-04  0.00000000E+00  7.43335293E-05
 -1.31390599E-03  4.24256947E-03 -7.75465323E-03  1.85519462E-02 -1.39984355E-03
  0.00000000E+00  0.00000000E+00 -6.10545821E-08  0.00000000E+00  0.00000000E+00
 -7.57802209E-06  0.00000000E+00  0.00000000E+00  1.58746186E-05  0.00000000E+00
  0.00000000E+00 -3.97836724E-05  0.00000000E+00  0.00000000E+00 -6.08642396E-06
  3.52789553E-04  0.00000000E+00  0.00000000E+00  6.11265036E-04  0.00000000E+00
  2.16093510E-03  0.00000000E+00  0.00000000E+00  3.74200675E-03  0.00000000E+00
 -4.51030244E-03  0.00000000E+00  0.00000000E+00 -7.81226956E-03  0.00000000E+00
  6.98956839E-01  3.35083571E-02 -2.24658799E-02  0.00000000E+00 -2.37650732E-04
 -1.12192508E-05  0.00000000E+00  6.95803913E-05  6.35268719E-06 -3.87501326E-04
  0.00000000E+00 -4.48420233E-06 -6.60757722E-04  0.00000000E+00  6.98956839E-01
  3.35083571E-02 -2.24658799E-02  0.00000000E+00  2.37650732E-04 -1.12192508E-05
  0.00000000E+00 -6.95803913E-05  6.35268719E-06 -3.87501326E-04  0.00000000E+00
  4.48420233E-06 -6.60757722E-04  0.00000000E+00  1.15325030E-05  8.71075231E-04
 -1.00886841E-03  0.00000000E+00  1.80052165E-04  1.30807734E-06  0.00000000E+00
  1.16744821E-03 -9.90176581E-06  5.67438583E-04  0.00000000E+00  5.98488337E-06
  9.82831133E-04  0.00000000E+00  1.15325030E-05  8.71075231E-04 -1.00886841E-03
  0.00000000E+00 -1.80052165E-04  1.30807734E-06  0.00000000E+00 -1.16744821E-03
 -9.90176581E-06  5.67438583E-04  0.00000000E+00 -5.98488337E-06  9.82831133E-04
  0.00000000E+00  0.00000000E+00  0.00000000E+00  0.00000000E+00  0.00000000E+00
  0.00000000E+00  0.00000000E+00  0.00000000E+00  4.87693195E-05  0.00000000E+00
  0.00000000E+00  9.75839489E-05  0.00000000E+00  0.00000000E+00  3.21475265E-03
  0.00000000E+00  0.00000000E+00  2.48769009E-02  0.00000000E+00  0.00000000E+00
 -2.00570593E-03  0.00000000E+00  0.00000000E+00  0.00000000E+00  6.94056612E-06
  0.00000000E+00  0.00000000E+00  0.00000000E+00  0.00000000E+00 -3.27671060E-05
  0.00000000E+00  0.00000000E+00  0.00000000E+00  0.00000000E+00 -5.09168216E-05
  0.00000000E+00  0.00000000E+00  6.98991547E-01  3.38191723E-02 -3.14964012E-02
  0.00000000E+00 -3.62144321E-04 -1.56573986E-05  0.00000000E+00  9.25552762E-03
 -2.90419470E-06 -2.48121909E-04  0.00000000E+00 -2.01929047E-06 -4.19403342E-04
  0.00000000E+00 -6.98991547E-01 -3.38191723E-02  3.14964012E-02  0.00000000E+00
 -3.62144321E-04  1.56573986E-05  0.00000000E+00  9.25552762E-03  2.90419470E-06
  2.48121909E-04  0.00000000E+00 -2.01929047E-06  4.19403342E-04  0.00000000E+00
 -3.13388225E-05  6.66489586E-04 -2.19011021E-03  0.00000000E+00 -5.97993941E-06
 -4.50823946E-07  0.00000000E+00  2.72791655E-03 -8.20014135E-06  5.95938039E-04
  0.00000000E+00  6.53237881E-06  1.03220709E-03  0.00000000E+00  3.13388225E-05
 -6.66489586E-04  2.19011021E-03  0.00000000E+00 -5.97993941E-06  4.50823946E-07
  0.00000000E+00  2.72791655E-03  8.20014135E-06 -5.95938039E-04  0.00000000E+00
  6.53237881E-06 -1.03220709E-03  0.00000000E+00 -5.22181942E-01  8.79811635E-01
  4.15294995E-01  2.69600893E-02 -1.89410615E-03  3.81928445E-04  0.00000000E+00
  0.00000000E+00  2.03466527E-04  0.00000000E+00  0.00000000E+00  1.14280134E-03
  0.00000000E+00  0.00000000E+00 -5.43144921E-04  0.00000000E+00  0.00000000E+00
  1.60491597E-04  0.00000000E+00  0.00000000E+00 -6.04595349E-05 -9.83887913E-04
  0.00000000E+00  0.00000000E+00 -1.62181938E-03  0.00000000E+00 -3.12611938E-03
  0.00000000E+00  0.00000000E+00 -5.41050822E-03  0.00000000E+00 -9.05519778E-05
  0.00000000E+00  0.00000000E+00 -1.58413909E-04  0.00000000E+00 -1.65162293E-03
  2.48627838E-03 -7.56896023E-03  0.00000000E+00 -2.64917760E-03  9.23825048E-06
  0.00000000E+00  6.43706689E-03 -3.57816955E-05 -5.91742092E-04  0.00000000E+00
 -8.76686851E-06 -1.02082338E-03  0.00000000E+00 -1.65162293E-03  2.48627838E-03
 -7.56896023E-03  0.00000000E+00  2.64917760E-03  9.23825048E-06  0.00000000E+00
 -6.43706689E-03 -3.57816955E-05 -5.91742092E-04  0.00000000E+00  8.76686851E-06
 -1.02082338E-03  0.00000000E+00  2.99666117E-05  4.41046953E-04 -2.16057548E-03
  0.00000000E+00 -2.68415031E-05 -3.67212494E-07  0.00000000E+00  8.33329828E-04
  5.29308482E-07  4.10183711E-05  0.00000000E+00  1.39144941E-07  7.09996869E-05
  0.00000000E+00  2.99666117E-05  4.41046953E-04 -2.16057548E-03  0.00000000E+00
  2.68415031E-05 -3.67212494E-07  0.00000000E+00 -8.33329828E-04  5.29308482E-07
  4.10183711E-05  0.00000000E+00 -1.39144941E-07  7.09996869E-05  0.00000000E+00
  0.00000000E+00  0.00000000E+00  0.00000000E+00  0.00000000E+00  0.00000000E+00
  0.00000000E+00  0.00000000E+00  1.50539193E-01  0.00000000E+00  0.00000000E+00
  8.45344912E-01  0.00000000E+00  0.00000000E+00  5.85800359E-02  0.00000000E+00
  0.00000000E+00  1.94212691E-04  0.00000000E+00  0.00000000E+00 -3.53540820E-06
  0.00000000E+00  0.00000000E+00  0.00000000E+00  8.56399143E-06  0.00000000E+00
  0.00000000E+00  0.00000000E+00  0.00000000E+00 -3.29442828E-04  0.00000000E+00
  0.00000000E+00  0.00000000E+00  0.00000000E+00  6.61866437E-05  0.00000000E+00
  0.00000000E+00 -9.31400103E-03  1.64137430E-02 -7.47939403E-04  0.00000000E+00
 -1.56726312E-02  2.39372014E-05  0.00000000E+00  1.88495890E-03  6.90175775E-05
 -2.66293802E-03  0.00000000E+00 -1.09129283E-05 -4.58547580E-03  0.00000000E+00
  9.31400103E-03 -1.64137430E-02  7.47939403E-04  0.00000000E+00 -1.56726312E-02
 -2.39372014E-05  0.00000000E+00  1.88495890E-03 -6.90175775E-05  2.66293802E-03
  0.00000000E+00 -1.09129283E-05  4.58547580E-03  0.00000000E+00  3.04891589E-05
  4.61948347E-04 -1.57803342E-03  0.00000000E+00 -5.19398776E-05  5.72998420E-06
  0.00000000E+00  8.81868823E-04 -3.06068216E-05  1.09032886E-04  0.00000000E+00
  3.25815332E-06  1.88917738E-04  0.00000000E+00 -3.04891589E-05 -4.61948347E-04
  1.57803342E-03  0.00000000E+00 -5.19398776E-05 -5.72998420E-06  0.00000000E+00
  8.81868823E-04  3.06068216E-05 -1.09032886E-04  0.00000000E+00  3.25815332E-06
 -1.88917738E-04  0.00000000E+00  0.00000000E+00  0.00000000E+00  0.00000000E+00
  0.00000000E+00  0.00000000E+00  0.00000000E+00  1.51553801E-01  0.00000000E+00
  0.00000000E+00  8.52703128E-01  0.00000000E+00  0.00000000E+00  5.48617397E-02
  0.00000000E+00  0.00000000E+00 -3.51069974E-04  0.00000000E+00  0.00000000E+00
  7.68045346E-05  0.00000000E+00  0.00000000E+00  0.00000000E+00  4.32247692E-04
  0.00000000E+00  0.00000000E+00  0.00000000E+00  0.00000000E+00 -2.71059480E-04
  0.00000000E+00  0.00000000E+00  0.00000000E+00  0.00000000E+00  1.02378756E-04
  0.00000000E+00  0.00000000E+00  0.00000000E+00  0.00000000E+00  0.00000000E+00
  0.00000000E+00  2.27757987E-03  0.00000000E+00  0.00000000E+00  6.63254737E-04
  0.00000000E+00  0.00000000E+00  0.00000000E+00  4.90182184E-06  0.00000000E+00
  0.00000000E+00 -1.49924773E-03  0.00000000E+00  0.00000000E+00  0.00000000E+00
  2.27757987E-03  0.00000000E+00  0.00000000E+00  6.63254737E-04  0.00000000E+00
  0.00000000E+00  0.00000000E+00  4.90182184E-06  0.00000000E+00  0.00000000E+00
  1.49924773E-03  0.00000000E+00  0.00000000E+00  0.00000000E+00  2.25684185E-05
  0.00000000E+00  0.00000000E+00 -1.22644016E-04  0.00000000E+00  0.00000000E+00
  0.00000000E+00 -1.04894833E-07  0.00000000E+00  0.00000000E+00 -4.47559307E-06
  0.00000000E+00  0.00000000E+00  0.00000000E+00  2.25684185E-05  0.00000000E+00
  0.00000000E+00 -1.22644016E-04  0.00000000E+00  0.00000000E+00  0.00000000E+00
 -1.04894833E-07  0.00000000E+00  0.00000000E+00  4.47559307E-06 -5.15143526E-07
  1.04590494E-03 -1.71575496E-03 -4.97591481E-04  4.11720834E-04 -8.80713709E-05
  0.00000000E+00  0.00000000E+00  1.51559091E-01  0.00000000E+00  0.00000000E+00
  8.52755333E-01  0.00000000E+00  0.00000000E+00  5.47789209E-02  0.00000000E+00
  0.00000000E+00 -3.39760374E-04  0.00000000E+00  0.00000000E+00  7.39859129E-05
  2.76923892E-04  0.00000000E+00  0.00000000E+00  2.41609451E-04  0.00000000E+00