 Entering Gaussian System, Link 0=g16
 Input=ruco2-pbepbe.com
 Output=ruco2-pbepbe.log
 Initial command:
 /scratch/SOFT/gaussian/g16_a03/g16/l1.exe "/home/mgimferrer/APOST3D.3.0/testset/reference/Gau-107099.inp" -scrdir="/home/mgimferrer/APOST3D.3.0/testset/reference/"
 Entering Link 1 = /scratch/SOFT/gaussian/g16_a03/g16/l1.exe PID=    107100.
  
 Copyright (c) 1988,1990,1992,1993,1995,1998,2003,2009,2016,
            Gaussian, Inc.  All Rights Reserved.
  
 This is part of the Gaussian(R) 16 program.  It is based on
 the Gaussian(R) 09 system (copyright 2009, Gaussian, Inc.),
 the Gaussian(R) 03 system (copyright 2003, Gaussian, Inc.),
 the Gaussian(R) 98 system (copyright 1998, Gaussian, Inc.),
 the Gaussian(R) 94 system (copyright 1995, Gaussian, Inc.),
 the Gaussian 92(TM) system (copyright 1992, Gaussian, Inc.),
 the Gaussian 90(TM) system (copyright 1990, Gaussian, Inc.),
 the Gaussian 88(TM) system (copyright 1988, Gaussian, Inc.),
 the Gaussian 86(TM) system (copyright 1986, Carnegie Mellon
 University), and the Gaussian 82(TM) system (copyright 1983,
 Carnegie Mellon University). Gaussian is a federally registered
 trademark of Gaussian, Inc.
  
 This software contains proprietary and confidential information,
 including trade secrets, belonging to Gaussian, Inc.
  
 This software is provided under written license and may be
 used, copied, transmitted, or stored only in accord with that
 written license.
  
 The following legend is applicable only to US Government
 contracts under FAR:
  
                    RESTRICTED RIGHTS LEGEND
  
 Use, reproduction and disclosure by the US Government is
 subject to restrictions as set forth in subparagraphs (a)
 and (c) of the Commercial Computer Software - Restricted
 Rights clause in FAR 52.227-19.
  
 Gaussian, Inc.
 340 Quinnipiac St., Bldg. 40, Wallingford CT 06492
  
  
 ---------------------------------------------------------------
 Warning -- This program may not be used in any manner that
 competes with the business of Gaussian, Inc. or will provide
 assistance to any competitor of Gaussian, Inc.  The licensee
 of this program is prohibited from giving any competitor of
 Gaussian, Inc. access to this program.  By using this program,
 the user acknowledges that Gaussian, Inc. is engaged in the
 business of creating and licensing software in the field of
 computational chemistry and represents and warrants to the
 licensee that it is not a competitor of Gaussian, Inc. and that
 it will not use this program in any manner prohibited above.
 ---------------------------------------------------------------
  

 Cite this work as:
 Gaussian 16, Revision A.03,
 M. J. Frisch, G. W. Trucks, H. B. Schlegel, G. E. Scuseria, 
 M. A. Robb, J. R. Cheeseman, G. Scalmani, V. Barone, 
 G. A. Petersson, H. Nakatsuji, X. Li, M. Caricato, A. V. Marenich, 
 J. Bloino, B. G. Janesko, R. Gomperts, B. Mennucci, H. P. Hratchian, 
 J. V. Ortiz, A. F. Izmaylov, J. L. Sonnenberg, D. Williams-Young, 
 F. Ding, F. Lipparini, F. Egidi, J. Goings, B. Peng, A. Petrone, 
 T. Henderson, D. Ranasinghe, V. G. Zakrzewski, J. Gao, N. Rega, 
 G. Zheng, W. Liang, M. Hada, M. Ehara, K. Toyota, R. Fukuda, 
 J. Hasegawa, M. Ishida, T. Nakajima, Y. Honda, O. Kitao, H. Nakai, 
 T. Vreven, K. Throssell, J. A. Montgomery, Jr., J. E. Peralta, 
 F. Ogliaro, M. J. Bearpark, J. J. Heyd, E. N. Brothers, K. N. Kudin, 
 V. N. Staroverov, T. A. Keith, R. Kobayashi, J. Normand, 
 K. Raghavachari, A. P. Rendell, J. C. Burant, S. S. Iyengar, 
 J. Tomasi, M. Cossi, J. M. Millam, M. Klene, C. Adamo, R. Cammi, 
 J. W. Ochterski, R. L. Martin, K. Morokuma, O. Farkas, 
 J. B. Foresman, and D. J. Fox, Gaussian, Inc., Wallingford CT, 2016.
 
 ******************************************
 Gaussian 16:  ES64L-G16RevA.03 25-Dec-2016
                31-Jan-2019 
 ******************************************
 %nproc=4
 Will use up to    4 processors via shared memory.
 %chk=ruco2-pbepbe.chk
 %mem=4000mb
 --------------------------------------------------------------------
 #p pbepbe/gen pop=full scf=xqc 5d 7f gfinput pseudo=read iop(3/33=3)
 --------------------------------------------------------------------
 1/38=1,172=1/1;
 2/12=2,17=6,18=5,40=1/2;
 3/5=7,8=11,11=2,16=1,17=8,24=10,25=1,30=1,33=3,74=1009/1,2,3;
 4//1;
 5/5=2,8=3,13=1,38=5/2,8;
 6/7=3,28=1/1;
 99/5=1,9=1/99;
 Leave Link    1 at Thu Jan 31 13:00:45 2019, MaxMem=   524288000 cpu:               0.2 elap:               0.1
 (Enter /scratch/SOFT/gaussian/g16_a03/g16/l101.exe)
 ------
 dsfdsf
 ------
 Symbolic Z-matrix:
 Charge =  2 Multiplicity = 1
 44                    0.        0.        0. 
 6                     1.33785  -1.35187  -0.00523 
 6                    -1.34488   1.34488   0. 
 8                     2.45651  -2.48225  -0.0096 
 8                    -2.46942   2.46942   0. 
 
 ITRead=  0  0  0  0  0
 MicOpt= -1 -1 -1 -1 -1
 NAtoms=      5 NQM=        5 NQMF=       0 NMMI=      0 NMMIF=      0
                NMic=       0 NMicF=      0.
                    Isotopes and Nuclear Properties:
 (Nuclear quadrupole moments (NQMom) in fm**2, nuclear magnetic moments (NMagM)
  in nuclear magnetons)

  Atom         1           2           3           4           5
 IAtWgt=         102          12          12          16          16
 AtmWgt= 101.9037000  12.0000000  12.0000000  15.9949146  15.9949146
 NucSpn=           0           0           0           0           0
 AtZEff=  -0.0000000  -0.0000000  -0.0000000  -0.0000000  -0.0000000
 NQMom=    0.0000000   0.0000000   0.0000000   0.0000000   0.0000000
 NMagM=    0.0000000   0.0000000   0.0000000   0.0000000   0.0000000
 AtZNuc=  44.0000000   6.0000000   6.0000000   8.0000000   8.0000000
 Leave Link  101 at Thu Jan 31 13:00:45 2019, MaxMem=   524288000 cpu:               0.6 elap:               0.1
 (Enter /scratch/SOFT/gaussian/g16_a03/g16/l202.exe)
                          Input orientation:                          
 ---------------------------------------------------------------------
 Center     Atomic      Atomic             Coordinates (Angstroms)
 Number     Number       Type             X           Y           Z
 ---------------------------------------------------------------------
      1         44           0        0.000000    0.000000    0.000000
      2          6           0        1.337846   -1.351865   -0.005226
      3          6           0       -1.344879    1.344879    0.000000
      4          8           0        2.456508   -2.482250   -0.009595
      5          8           0       -2.469422    2.469422    0.000000
 ---------------------------------------------------------------------
                    Distance matrix (angstroms):
                    1          2          3          4          5
     1  Ru   0.000000
     2  C    1.901946   0.000000
     3  C    1.901946   3.803875   0.000000
     4  O    3.492290   1.590344   5.394214   0.000000
     5  O    3.492290   5.394214   1.590344   6.984550   0.000000
 Stoichiometry    C2O2Ru(2+)
 Framework group  C2V[C2(Ru),SGV(C2O2)]
 Deg. of freedom     4
 Full point group                 C2V     NOp   4
 Largest Abelian subgroup         C2V     NOp   4
 Largest concise Abelian subgroup C2      NOp   2
                         Standard orientation:                         
 ---------------------------------------------------------------------
 Center     Atomic      Atomic             Coordinates (Angstroms)
 Number     Number       Type             X           Y           Z
 ---------------------------------------------------------------------
      1         44           0       -0.000000    0.000000    0.003220
      2          6           0       -0.000000    1.901938   -0.002383
      3          6           0        0.000000   -1.901938   -0.002383
      4          8           0       -0.000000    3.492275   -0.007068
      5          8           0        0.000000   -3.492275   -0.007068
 ---------------------------------------------------------------------
 Rotational constants (GHZ):      181898.9386634           1.0595742           1.0595681
 Leave Link  202 at Thu Jan 31 13:00:45 2019, MaxMem=   524288000 cpu:               0.0 elap:               0.0
 (Enter /scratch/SOFT/gaussian/g16_a03/g16/l301.exe)
 General basis read from cards:  (5D, 7F)
                         Coordinates in L301:                         
 ---------------------------------------------------------------------
 Center     Atomic      Atomic             Coordinates (Angstroms)
 Number     Number       Type             X           Y           Z
 ---------------------------------------------------------------------
      1         44           0       -0.000000    0.000000    0.003220
      2          6           0       -0.000000    1.901938   -0.002383
      3          6           0        0.000000   -1.901938   -0.002383
      4          8           0       -0.000000    3.492275   -0.007068
      5          8           0        0.000000   -3.492275   -0.007068
 ---------------------------------------------------------------------
 Centers:       1
 sdd
 ****
 Centers:       4      5      2      3
 SVP
 ****
 ======================================================================================================
                                       Pseudopotential Parameters
 ======================================================================================================
  Center     Atomic      Valence      Angular      Power
  Number     Number     Electrons     Momentum     of R      Exponent        Coefficient   SO-Coeffient
 ======================================================================================================
 Centers:   1
    1         44           16
                                      G and up 
                                                     2        1.0000000        0.00000000    0.00000000
                                      S - G
                                                     2       11.1052690      209.82297100    0.00000000
                                                     2        5.4147450       30.65472600    0.00000000
                                      P - G
                                                     2        9.7712710      146.33618200    0.00000000
                                                     2        5.0739910       24.12787700    0.00000000
                                      D - G
                                                     2        7.6714230       67.51589700    0.00000000
                                                     2        4.1365650        9.87010400    0.00000000
                                      F - G
                                                     2       11.3600000      -28.34061600    0.00000000
                                                     2        5.6800000       -4.94462900    0.00000000
    2          6
                                   No pseudopotential on this center.
    3          6
                                   No pseudopotential on this center.
    4          8
                                   No pseudopotential on this center.
    5          8
                                   No pseudopotential on this center.
 ======================================================================================================
 FixB: optimizing general contractions.
 Ernie: Thresh=  0.10000D-02 Tol=  0.10000D-05 Strict=F.
 IA=     1 ShT= 0 ShC= 0 NL=   6 NS=   5.
         I=   1 JX=   1 NP=   3
         I=   2 JX=   2 NP=   1
         I=   3 JX=   3 NP=   1
         I=   4 JX=   4 NP=   1
         I=   5 JX=   5 NP=   1
         I=   6 JX=   6 NP=   1
 IA=     1 L=0 SC=0 ISt=    0 NBk=    0 NP=    0 IndPr=    0.
 IA=     1 ShT= 1 ShC= 1 NL=   5 NS=   3.
         I=   1 JX=   7 NP=   2
         I=   2 JX=   8 NP=   2
         I=   3 JX=   9 NP=   1
         I=   4 JX=  10 NP=   1
         I=   5 JX=  11 NP=   1
 IA=     1 L=1 SC=1 ISt=    1 NBk=    2 NP=    4 IndPr=    0.
 DoElim1:  L=1 select primitive    1 from    2 using    1 C=-4.72D+00
 DoElim2:  L=1 select primitive    3 from    1 using    2 C= 7.29D-01
 Delete L=1 primitive    2 from    2 C=  0.00D+00.
 Delete L=1 primitive    1 from    2 C=  0.00D+00.
 Delete L=1 primitive    4 from    1 C=  0.00D+00.
 Delete L=1 primitive    3 from    1 C=  0.00D+00.
 IA=     1 L=1 SC=1 ISt=    0 NBk=    0 NP=    0 IndPr=    4.
 IA=     1 ShT= 2 ShC= 2 NL=   3 NS=   2.
         I=   1 JX=  12 NP=   4
         I=   2 JX=  13 NP=   1
         I=   3 JX=  14 NP=   1
 IA=     1 L=2 SC=2 ISt=    0 NBk=    0 NP=    0 IndPr=    0.
 IA=     2 ShT= 0 ShC= 0 NL=   3 NS=   2.
         I=   1 JX=  15 NP=   5
         I=   2 JX=  16 NP=   1
         I=   3 JX=  17 NP=   1
 IA=     2 L=0 SC=0 ISt=    0 NBk=    0 NP=    0 IndPr=    0.
 IA=     2 ShT= 1 ShC= 1 NL=   2 NS=   1.
         I=   1 JX=  18 NP=   3
         I=   2 JX=  19 NP=   1
 IA=     2 L=1 SC=1 ISt=    0 NBk=    0 NP=    0 IndPr=    0.
 IA=     2 ShT= 2 ShC= 2 NL=   1 NS=   1.
         I=   1 JX=   1 NP=   3
 IA=     2 L=2 SC=2 ISt=    0 NBk=    0 NP=    0 IndPr=    0.
 IA=     3 ShT= 0 ShC= 0 NL=   3 NS=   2.
         I=   1 JX=  21 NP=   5
         I=   2 JX=  22 NP=   1
         I=   3 JX=  23 NP=   1
 IA=     3 L=0 SC=0 ISt=    0 NBk=    0 NP=    0 IndPr=    0.
 IA=     3 ShT= 1 ShC= 1 NL=   2 NS=   1.
         I=   1 JX=  24 NP=   3
         I=   2 JX=  25 NP=   1
 IA=     3 L=1 SC=1 ISt=    0 NBk=    0 NP=    0 IndPr=    0.
 IA=     3 ShT= 2 ShC= 2 NL=   1 NS=   1.
         I=   1 JX=   1 NP=   3
 IA=     3 L=2 SC=2 ISt=    0 NBk=    0 NP=    0 IndPr=    0.
 IA=     4 ShT= 0 ShC= 0 NL=   3 NS=   2.
         I=   1 JX=  27 NP=   5
         I=   2 JX=  28 NP=   1
         I=   3 JX=  29 NP=   1
 IA=     4 L=0 SC=0 ISt=    0 NBk=    0 NP=    0 IndPr=    0.
 IA=     4 ShT= 1 ShC= 1 NL=   2 NS=   1.
         I=   1 JX=  30 NP=   3
         I=   2 JX=  31 NP=   1
 IA=     4 L=1 SC=1 ISt=    0 NBk=    0 NP=    0 IndPr=    0.
 IA=     4 ShT= 2 ShC= 2 NL=   1 NS=   1.
         I=   1 JX=   1 NP=   3
 IA=     4 L=2 SC=2 ISt=    0 NBk=    0 NP=    0 IndPr=    0.
 IA=     5 ShT= 0 ShC= 0 NL=   3 NS=   2.
         I=   1 JX=  33 NP=   5
         I=   2 JX=  34 NP=   1
         I=   3 JX=  35 NP=   1
 IA=     5 L=0 SC=0 ISt=    0 NBk=    0 NP=    0 IndPr=    0.
 IA=     5 ShT= 1 ShC= 1 NL=   2 NS=   1.
         I=   1 JX=  36 NP=   3
         I=   2 JX=  37 NP=   1
 IA=     5 L=1 SC=1 ISt=    0 NBk=    0 NP=    0 IndPr=    0.
 IA=     5 ShT= 2 ShC= 2 NL=   1 NS=   1.
         I=   1 JX=   1 NP=   3
 IA=     5 L=2 SC=2 ISt=    0 NBk=    0 NP=    0 IndPr=    0.
 Electric field displacement of shell     1 is  0.00D+00
 Electric field displacement of shell     2 is  0.00D+00
 Electric field displacement of shell     3 is  0.00D+00
 Electric field displacement of shell     4 is  0.00D+00
 Electric field displacement of shell     5 is  0.00D+00
 Electric field displacement of shell     6 is  0.00D+00
 Electric field displacement of shell     7 is  0.00D+00
 Electric field displacement of shell     8 is  0.00D+00
 Electric field displacement of shell     9 is  0.00D+00
 Electric field displacement of shell    10 is  0.00D+00
 Electric field displacement of shell    11 is  0.00D+00
 Electric field displacement of shell    12 is  0.00D+00
 Electric field displacement of shell    13 is  0.00D+00
 Electric field displacement of shell    14 is  0.00D+00
 Electric field displacement of shell    15 is  0.00D+00
 Electric field displacement of shell    16 is  0.00D+00
 Electric field displacement of shell    17 is  0.00D+00
 Electric field displacement of shell    18 is  0.00D+00
 Electric field displacement of shell    19 is  0.00D+00
 Electric field displacement of shell    20 is  0.00D+00
 Electric field displacement of shell    21 is  0.00D+00
 Electric field displacement of shell    22 is  0.00D+00
 Electric field displacement of shell    23 is  0.00D+00
 Electric field displacement of shell    24 is  0.00D+00
 Electric field displacement of shell    25 is  0.00D+00
 Electric field displacement of shell    26 is  0.00D+00
 Electric field displacement of shell    27 is  0.00D+00
 Electric field displacement of shell    28 is  0.00D+00
 Electric field displacement of shell    29 is  0.00D+00
 Electric field displacement of shell    30 is  0.00D+00
 Electric field displacement of shell    31 is  0.00D+00
 Electric field displacement of shell    32 is  0.00D+00
 Electric field displacement of shell    33 is  0.00D+00
 Electric field displacement of shell    34 is  0.00D+00
 Electric field displacement of shell    35 is  0.00D+00
 Electric field displacement of shell    36 is  0.00D+00
 Electric field displacement of shell    37 is  0.00D+00
 Electric field displacement of shell    38 is  0.00D+00
 AO basis set in the form of general basis input (Overlap normalization):
      1 0
 S   3 1.00       0.000000000000
      0.7936570000D+01 -0.1119665531D+01
      0.5984245000D+01  0.1445329211D+01
      0.4882220000D+01  0.6261652615D+00
 S   1 1.00       0.000000000000
      0.1144624000D+01  0.1000000000D+01
 S   1 1.00       0.000000000000
      0.5230170000D+00  0.1000000000D+01
 S   1 1.00       0.000000000000
      0.1175730000D+00  0.1000000000D+01
 S   1 1.00       0.000000000000
      0.4805000000D-01  0.1000000000D+01
 S   1 1.00       0.000000000000
      0.1600000000D-01  0.1000000000D+01
 P   2 1.00       0.000000000000
      0.3754609000D+01 -0.4722656422D+01
      0.2916571000D+01  0.4990908318D+01
 P   2 1.00       0.000000000000
      0.1048675000D+01  0.7285466549D+00
      0.5073200000D+00  0.3039042812D+00
 P   1 1.00       0.000000000000
      0.2673980000D+00  0.1000000000D+01
 P   1 1.00       0.000000000000
      0.6974800000D-01  0.1000000000D+01
 P   1 1.00       0.000000000000
      0.2292700000D-01  0.1000000000D+01
 D   4 1.00       0.000000000000
      0.6009913000D+01 -0.3271599963D-01
      0.2104280000D+01  0.2657391970D+00
      0.9215000000D+00  0.4812397945D+00
      0.3885980000D+00  0.4099777953D+00
 D   1 1.00       0.000000000000
      0.1528360000D+00  0.1000000000D+01
 D   1 1.00       0.000000000000
      0.5100000000D-01  0.1000000000D+01
 ****
      2 0
 S   5 1.00       0.000000000000
      0.1238401694D+04  0.5517361802D-02
      0.1862900499D+03  0.4108882934D-01
      0.4225117635D+02  0.1822538223D+00
      0.1167655793D+02  0.4682845967D+00
      0.3593050650D+01  0.4457581700D+00
 S   1 1.00       0.000000000000
      0.4024514700D+00  0.1000000000D+01
 S   1 1.00       0.000000000000
      0.1309018300D+00  0.1000000000D+01
 P   3 1.00       0.000000000000
      0.9468097060D+01  0.5688832962D-01
      0.2010354510D+01  0.3129405926D+00
      0.5477100500D+00  0.7606501657D+00
 P   1 1.00       0.000000000000
      0.1526861400D+00  0.1000000000D+01
 D   1 1.00       0.000000000000
      0.8000000000D+00  0.1000000000D+01
 ****
      3 0
 S   5 1.00       0.000000000000
      0.1238401694D+04  0.5517361802D-02
      0.1862900499D+03  0.4108882934D-01
      0.4225117635D+02  0.1822538223D+00
      0.1167655793D+02  0.4682845967D+00
      0.3593050650D+01  0.4457581700D+00
 S   1 1.00       0.000000000000
      0.4024514700D+00  0.1000000000D+01
 S   1 1.00       0.000000000000
      0.1309018300D+00  0.1000000000D+01
 P   3 1.00       0.000000000000
      0.9468097060D+01  0.5688832962D-01
      0.2010354510D+01  0.3129405926D+00
      0.5477100500D+00  0.7606501657D+00
 P   1 1.00       0.000000000000
      0.1526861400D+00  0.1000000000D+01
 D   1 1.00       0.000000000000
      0.8000000000D+00  0.1000000000D+01
 ****
      4 0
 S   5 1.00       0.000000000000
      0.2266176779D+04 -0.5389349396D-02
      0.3408701019D+03 -0.4023472220D-01
      0.7736313517D+02 -0.1800818424D+00
      0.2147964494D+02 -0.4682885774D+00
      0.6658943310D+01 -0.4469261703D+00
 S   1 1.00       0.000000000000
      0.8097597600D+00  0.1000000000D+01
 S   1 1.00       0.000000000000
      0.2553077200D+00  0.1000000000D+01
 P   3 1.00       0.000000000000
      0.1772150432D+02  0.6263024412D-01
      0.3863550540D+01  0.3333113880D+00
      0.1048092090D+01  0.7414863817D+00
 P   1 1.00       0.000000000000
      0.2764154400D+00  0.1000000000D+01
 D   1 1.00       0.000000000000
      0.1200000000D+01  0.1000000000D+01
 ****
      5 0
 S   5 1.00       0.000000000000
      0.2266176779D+04 -0.5389349396D-02
      0.3408701019D+03 -0.4023472220D-01
      0.7736313517D+02 -0.1800818424D+00
      0.2147964494D+02 -0.4682885774D+00
      0.6658943310D+01 -0.4469261703D+00
 S   1 1.00       0.000000000000
      0.8097597600D+00  0.1000000000D+01
 S   1 1.00       0.000000000000
      0.2553077200D+00  0.1000000000D+01
 P   3 1.00       0.000000000000
      0.1772150432D+02  0.6263024412D-01
      0.3863550540D+01  0.3333113880D+00
      0.1048092090D+01  0.7414863817D+00
 P   1 1.00       0.000000000000
      0.2764154400D+00  0.1000000000D+01
 D   1 1.00       0.000000000000
      0.1200000000D+01  0.1000000000D+01
 ****

 Effective core potential in the form of general ECP input:
      1 0
 Ru1-ECP   4 28
 G component
  1
  2        1.0000000        0.00000000    0.00000000
 S-G projection
  2
  2       11.1052690      209.82297100    0.00000000
  2        5.4147450       30.65472600    0.00000000
 P-G projection
  2
  2        9.7712710      146.33618200    0.00000000
  2        5.0739910       24.12787700    0.00000000
 D-G projection
  2
  2        7.6714230       67.51589700    0.00000000
  2        4.1365650        9.87010400    0.00000000
 F-G projection
  2
  2       11.3600000      -28.34061600    0.00000000
  2        5.6800000       -4.94462900    0.00000000
 
 LdAtmC:  AtmChg=    16.000000     6.000000     6.000000     8.000000     8.000000
 AtZEff=   -221.7600000     -3.6000000     -3.6000000     -5.6000000     -5.6000000
 NEqShl: 
              1            2            3            4
     1            1            1            1            1
     2            2            2            2            2
     3            3            3            3            3
     4            4            4            4            4
     5            5            5            5            5
     6            6            6            6            6
     7            7            7            7            7
     8            8            8            8            8
     9            9            9            9            9
    10           10           10           10           10
    11           11           11           11           11
    12           12           12           12           12
    13           13           13           13           13
    14           14           14           14           14
    15           15           21           15           21
    16           16           22           16           22
    17           17           23           17           23
    18           18           24           18           24
    19           19           25           19           25
    20           20           26           20           26
    21           21           15           21           15
    22           22           16           22           16
    23           23           17           23           17
    24           24           18           24           18
    25           25           19           25           19
    26           26           20           26           20
    27           27           33           27           33
    28           28           34           28           34
    29           29           35           29           35
    30           30           36           30           36
    31           31           37           31           37
    32           32           38           32           38
    33           33           27           33           27
    34           34           28           34           28
    35           35           29           35           29
    36           36           30           36           30
    37           37           31           37           31
    38           38           32           38           32
 NEqBas: 
              1            2            3            4
     1            1            1            1            1
     2            2            2            2            2
     3            3            3            3            3
     4            4            4            4            4
     5            5            5            5            5
     6            6            6            6            6
     7            7           -7           -7            7
     8            8           -8            8           -8
     9            9            9            9            9
    10           10          -10          -10           10
    11           11          -11           11          -11
    12           12           12           12           12
    13           13          -13          -13           13
    14           14          -14           14          -14
    15           15           15           15           15
    16           16          -16          -16           16
    17           17          -17           17          -17
    18           18           18           18           18
    19           19          -19          -19           19
    20           20          -20           20          -20
    21           21           21           21           21
    22           22           22           22           22
    23           23           23           23           23
    24           24           24           24           24
    25           25           25          -25          -25
    26           26          -26          -26           26
    27           27          -27           27          -27
    28           28           28           28           28
    29           29           29           29           29
    30           30           30           30           30
    31           31           31          -31          -31
    32           32          -32          -32           32
    33           33          -33           33          -33
    34           34           34           34           34
    35           35           35           35           35
    36           36           36           36           36
    37           37           37          -37          -37
    38           38          -38          -38           38
    39           39          -39           39          -39
    40           40           55           40           55
    41           41           56           41           56
    42           42           57           42           57
    43           43          -58          -43           58
    44           44          -59           44          -59
    45           45           60           45           60
    46           46          -61          -46           61
    47           47          -62           47          -62
    48           48           63           48           63
    49           49           64           49           64
    50           50           65           50           65
    51           51           66           51           66
    52           52           67          -52          -67
    53           53          -68          -53           68
    54           54          -69           54          -69
    55           55           40           55           40
    56           56           41           56           41
    57           57           42           57           42
    58           58          -43          -58           43
    59           59          -44           59          -44
    60           60           45           60           45
    61           61          -46          -61           46
    62           62          -47           62          -47
    63           63           48           63           48
    64           64           49           64           49
    65           65           50           65           50
    66           66           51           66           51
    67           67           52          -67          -52
    68           68          -53          -68           53
    69           69          -54           69          -54
    70           70           85           70           85
    71           71           86           71           86
    72           72           87           72           87
    73           73          -88          -73           88
    74           74          -89           74          -89
    75           75           90           75           90
    76           76          -91          -76           91
    77           77          -92           77          -92
    78           78           93           78           93
    79           79           94           79           94
    80           80           95           80           95
    81           81           96           81           96
    82           82           97          -82          -97
    83           83          -98          -83           98
    84           84          -99           84          -99
    85           85           70           85           70
    86           86           71           86           71
    87           87           72           87           72
    88           88          -73          -88           73
    89           89          -74           89          -74
    90           90           75           90           75
    91           91          -76          -91           76
    92           92          -77           92          -77
    93           93           78           93           78
    94           94           79           94           79
    95           95           80           95           80
    96           96           81           96           81
    97           97           82          -97          -82
    98           98          -83          -98           83
    99           99          -84           99          -84
 There are    42 symmetry adapted cartesian basis functions of A1  symmetry.
   1         1   1   1   1
   2         2   2   2   2
   3         3   3   3   3
   4         4   4   4   4
   5         5   5   5   5
   6         6   6   6   6
   7         9   9   9   9
   8        12  12  12  12
   9        15  15  15  15
  10        18  18  18  18
  11        21  21  21  21
  12        22  22  22  22
  13        23  23  23  23
  14        24  24  24  24
  15        28  28  28  28
  16        29  29  29  29
  17        30  30  30  30
  18        34  34  34  34
  19        35  35  35  35
  20        36  36  36  36
  21        40  55  55  40
  22        41  56  56  41
  23        42  57  57  42
  24        44 -59 -59  44
  25        45  60  60  45
  26        47 -62 -62  47
  27        48  63  63  48
  28        49  64  64  49
  29        50  65  65  50
  30        51  66  66  51
  31        54 -69 -69  54
  32        70  85  85  70
  33        71  86  86  71
  34        72  87  87  72
  35        74 -89 -89  74
  36        75  90  90  75
  37        77 -92 -92  77
  38        78  93  93  78
  39        79  94  94  79
  40        80  95  95  80
  41        81  96  96  81
  42        84 -99 -99  84
 There are    11 symmetry adapted cartesian basis functions of A2  symmetry.
  43        25  25  25  25
  44        31  31  31  31
  45        37  37  37  37
  46        43 -58 -58  43
  47        46 -61 -61  46
  48        52  67  67  52
  49        53 -68 -68  53
  50        73 -88 -88  73
  51        76 -91 -91  76
  52        82  97  97  82
  53        83 -98 -98  83
 There are    16 symmetry adapted cartesian basis functions of B1  symmetry.
  54         7   7   7   7
  55        10  10  10  10
  56        13  13  13  13
  57        16  16  16  16
  58        19  19  19  19
  59        26  26  26  26
  60        32  32  32  32
  61        38  38  38  38
  62        43  58  58  43
  63        46  61  61  46
  64        52 -67 -67  52
  65        53  68  68  53
  66        73  88  88  73
  67        76  91  91  76
  68        82 -97 -97  82
  69        83  98  98  83
 There are    30 symmetry adapted cartesian basis functions of B2  symmetry.
  70         8   8   8   8
  71        11  11  11  11
  72        14  14  14  14
  73        17  17  17  17
  74        20  20  20  20
  75        27  27  27  27
  76        33  33  33  33
  77        39  39  39  39
  78        40 -55 -55  40
  79        41 -56 -56  41
  80        42 -57 -57  42
  81        44  59  59  44
  82        45 -60 -60  45
  83        47  62  62  47
  84        48 -63 -63  48
  85        49 -64 -64  49
  86        50 -65 -65  50
  87        51 -66 -66  51
  88        54  69  69  54
  89        70 -85 -85  70
  90        71 -86 -86  71
  91        72 -87 -87  72
  92        74  89  89  74
  93        75 -90 -90  75
  94        77  92  92  77
  95        78 -93 -93  78
  96        79 -94 -94  79
  97        80 -95 -95  80
  98        81 -96 -96  81
  99        84  99  99  84
 Order= 1 2 4 3
 Reordered character table:
              1            2            3            4            5
     1            1            1            1            1            1
     2            2            1            1           -1           -1
     3            4            1           -1           -1            1
     4            3            1           -1            1           -1
 NEqShl: 
              1            2            3            4
     1            1            1            1            1
     2            2            2            2            2
     3            3            3            3            3
     4            4            4            4            4
     5            5            5            5            5
     6            6            6            6            6
     7            7            7            7            7
     8            8            8            8            8
     9            9            9            9            9
    10           10           10           10           10
    11           11           11           11           11
    12           12           12           12           12
    13           13           13           13           13
    14           14           14           14           14
    15           15           21           15           21
    16           16           22           16           22
    17           17           23           17           23
    18           18           24           18           24
    19           19           25           19           25
    20           20           26           20           26
    21           21           15           21           15
    22           22           16           22           16
    23           23           17           23           17
    24           24           18           24           18
    25           25           19           25           19
    26           26           20           26           20
    27           27           33           27           33
    28           28           34           28           34
    29           29           35           29           35
    30           30           36           30           36
    31           31           37           31           37
    32           32           38           32           38
    33           33           27           33           27
    34           34           28           34           28
    35           35           29           35           29
    36           36           30           36           30
    37           37           31           37           31
    38           38           32           38           32
 NEqBas: 
              1            2            3            4
     1            1            1            1            1
     2            2            2            2            2
     3            3            3            3            3
     4            4            4            4            4
     5            5            5            5            5
     6            6            6            6            6
     7            7           -7           -7            7
     8            8           -8            8           -8
     9            9            9            9            9
    10           10          -10          -10           10
    11           11          -11           11          -11
    12           12           12           12           12
    13           13          -13          -13           13
    14           14          -14           14          -14
    15           15           15           15           15
    16           16          -16          -16           16
    17           17          -17           17          -17
    18           18           18           18           18
    19           19          -19          -19           19
    20           20          -20           20          -20
    21           21           21           21           21
    22           22           22           22           22
    23           23          -23          -23           23
    24           24          -24           24          -24
    25           25           25           25           25
    26           26           26          -26          -26
    27           27           27           27           27
    28           28          -28          -28           28
    29           29          -29           29          -29
    30           30           30           30           30
    31           31           31          -31          -31
    32           32           32           32           32
    33           33          -33          -33           33
    34           34          -34           34          -34
    35           35           35           35           35
    36           36           36          -36          -36
    37           37           51           37           51
    38           38           52           38           52
    39           39           53           39           53
    40           40          -54          -40           54
    41           41          -55           41          -55
    42           42           56           42           56
    43           43          -57          -43           57
    44           44          -58           44          -58
    45           45           59           45           59
    46           46           60           46           60
    47           47          -61          -47           61
    48           48          -62           48          -62
    49           49           63           49           63
    50           50           64          -50          -64
    51           51           37           51           37
    52           52           38           52           38
    53           53           39           53           39
    54           54          -40          -54           40
    55           55          -41           55          -41
    56           56           42           56           42
    57           57          -43          -57           43
    58           58          -44           58          -44
    59           59           45           59           45
    60           60           46           60           46
    61           61          -47          -61           47
    62           62          -48           62          -48
    63           63           49           63           49
    64           64           50          -64          -50
    65           65           79           65           79
    66           66           80           66           80
    67           67           81           67           81
    68           68          -82          -68           82
    69           69          -83           69          -83
    70           70           84           70           84
    71           71          -85          -71           85
    72           72          -86           72          -86
    73           73           87           73           87
    74           74           88           74           88
    75           75          -89          -75           89
    76           76          -90           76          -90
    77           77           91           77           91
    78           78           92          -78          -92
    79           79           65           79           65
    80           80           66           80           66
    81           81           67           81           67
    82           82          -68          -82           68
    83           83          -69           83          -69
    84           84           70           84           70
    85           85          -71          -85           71
    86           86          -72           86          -72
    87           87           73           87           73
    88           88           74           88           74
    89           89          -75          -89           75
    90           90          -76           90          -76
    91           91           77           91           77
    92           92           78          -92          -78
 There are    37 symmetry adapted basis functions of A1  symmetry.
   1         1   1   1   1
   2         2   2   2   2
   3         3   3   3   3
   4         4   4   4   4
   5         5   5   5   5
   6         6   6   6   6
   7         9   9   9   9
   8        12  12  12  12
   9        15  15  15  15
  10        18  18  18  18
  11        21  21  21  21
  12        22  22  22  22
  13        25  25  25  25
  14        27  27  27  27
  15        30  30  30  30
  16        32  32  32  32
  17        35  35  35  35
  18        37  51  51  37
  19        38  52  52  38
  20        39  53  53  39
  21        41 -55 -55  41
  22        42  56  56  42
  23        44 -58 -58  44
  24        45  59  59  45
  25        46  60  60  46
  26        48 -62 -62  48
  27        49  63  63  49
  28        65  79  79  65
  29        66  80  80  66
  30        67  81  81  67
  31        69 -83 -83  69
  32        70  84  84  70
  33        72 -86 -86  72
  34        73  87  87  73
  35        74  88  88  74
  36        76 -90 -90  76
  37        77  91  91  77
 There are    11 symmetry adapted basis functions of A2  symmetry.
  38        26  26  26  26
  39        31  31  31  31
  40        36  36  36  36
  41        40 -54 -54  40
  42        43 -57 -57  43
  43        47 -61 -61  47
  44        50  64  64  50
  45        68 -82 -82  68
  46        71 -85 -85  71
  47        75 -89 -89  75
  48        78  92  92  78
 There are    16 symmetry adapted basis functions of B1  symmetry.
  49         7   7   7   7
  50        10  10  10  10
  51        13  13  13  13
  52        16  16  16  16
  53        19  19  19  19
  54        23  23  23  23
  55        28  28  28  28
  56        33  33  33  33
  57        40  54  54  40
  58        43  57  57  43
  59        47  61  61  47
  60        50 -64 -64  50
  61        68  82  82  68
  62        71  85  85  71
  63        75  89  89  75
  64        78 -92 -92  78
 There are    28 symmetry adapted basis functions of B2  symmetry.
  65         8   8   8   8
  66        11  11  11  11
  67        14  14  14  14
  68        17  17  17  17
  69        20  20  20  20
  70        24  24  24  24
  71        29  29  29  29
  72        34  34  34  34
  73        37 -51 -51  37
  74        38 -52 -52  38
  75        39 -53 -53  39
  76        41  55  55  41
  77        42 -56 -56  42
  78        44  58  58  44
  79        45 -59 -59  45
  80        46 -60 -60  46
  81        48  62  62  48
  82        49 -63 -63  49
  83        65 -79 -79  65
  84        66 -80 -80  66
  85        67 -81 -81  67
  86        69  83  83  69
  87        70 -84 -84  70
  88        72  86  86  72
  89        73 -87 -87  73
  90        74 -88 -88  74
  91        76  90  90  76
  92        77 -91 -91  77
 Order= 1 2 4 3
 Reordered character table:
              1            2            3            4            5
     1            1            1            1            1            1
     2            2            1            1           -1           -1
     3            4            1           -1           -1            1
     4            3            1           -1            1           -1
    92 basis functions,   165 primitive gaussians,    99 cartesian basis functions
    21 alpha electrons       21 beta electrons
       nuclear repulsion energy       143.4291633365 Hartrees.
 IS=     1 IAt=     1 ISR=     1 T=0 IP=      1 IndIP=      1 IndIPD=      0 C= -3.773315D+00  0.000000D+00                             NZ=T
 IS=     1 IAt=     1 ISR=     1 T=0 IP=      2 IndIP=      2 IndIPD=      1 C=  3.941249D+00  0.000000D+00                             NZ=T
 IS=     1 IAt=     1 ISR=     1 T=0 IP=      3 IndIP=      3 IndIPD=      2 C=  1.465757D+00  0.000000D+00                             NZ=T
 IS=     2 IAt=     1 ISR=     2 T=0 IP=      1 IndIP=      4 IndIPD=      0 C=  7.886916D-01  0.000000D+00                             NZ=T
 IS=     3 IAt=     1 ISR=     3 T=0 IP=      1 IndIP=      5 IndIPD=      0 C=  4.383257D-01  0.000000D+00                             NZ=T
 IS=     4 IAt=     1 ISR=     4 T=0 IP=      1 IndIP=      6 IndIPD=      0 C=  1.431004D-01  0.000000D+00                             NZ=T
 IS=     5 IAt=     1 ISR=     5 T=0 IP=      1 IndIP=      7 IndIPD=      0 C=  7.314424D-02  0.000000D+00                             NZ=T
 IS=     6 IAt=     1 ISR=     6 T=0 IP=      1 IndIP=      8 IndIPD=      0 C=  3.206270D-02  0.000000D+00                             NZ=T
 IS=     7 IAt=     1 ISR=     7 T=1 IP=      1 IndIP=      9 IndIPD=      0 C=  0.000000D+00 -3.518296D+01                             NZ=T
 IS=     7 IAt=     1 ISR=     7 T=1 IP=      2 IndIP=     10 IndIPD=      1 C=  0.000000D+00  2.711505D+01                             NZ=T
 IS=     8 IAt=     1 ISR=     8 T=1 IP=      1 IndIP=     11 IndIPD=      0 C=  0.000000D+00  1.102043D+00                             NZ=T
 IS=     8 IAt=     1 ISR=     8 T=1 IP=      2 IndIP=     12 IndIPD=      1 C=  0.000000D+00  1.854724D-01                             NZ=T
 IS=     9 IAt=     1 ISR=     9 T=1 IP=      1 IndIP=     13 IndIPD=      0 C=  0.000000D+00  2.740866D-01                             NZ=T
 IS=    10 IAt=     1 ISR=    10 T=1 IP=      1 IndIP=     14 IndIPD=      0 C=  0.000000D+00  5.109222D-02                             NZ=T
 IS=    11 IAt=     1 ISR=    11 T=1 IP=      1 IndIP=     15 IndIPD=      0 C=  0.000000D+00  1.271669D-02                             NZ=T
 IS=    12 IAt=     1 ISR=    12 T=2 IP=      1 IndIP=     16 IndIPD=      1 C=  0.000000D+00  0.000000D+00 -1.242193D+00  0.000000D+00 NZ=T
 IS=    12 IAt=     1 ISR=    12 T=2 IP=      2 IndIP=     17 IndIPD=      2 C=  0.000000D+00  0.000000D+00  1.608038D+00  0.000000D+00 NZ=T
 IS=    12 IAt=     1 ISR=    12 T=2 IP=      3 IndIP=     18 IndIPD=      3 C=  0.000000D+00  0.000000D+00  6.864957D-01  0.000000D+00 NZ=T
 IS=    12 IAt=     1 ISR=    12 T=2 IP=      4 IndIP=     19 IndIPD=      4 C=  0.000000D+00  0.000000D+00  1.290612D-01  0.000000D+00 NZ=T
 IS=    13 IAt=     1 ISR=    13 T=2 IP=      1 IndIP=     20 IndIPD=      5 C=  0.000000D+00  0.000000D+00  6.148998D-02  0.000000D+00 NZ=T
 IS=    14 IAt=     1 ISR=    14 T=2 IP=      1 IndIP=     21 IndIPD=      6 C=  0.000000D+00  0.000000D+00  9.008599D-03  0.000000D+00 NZ=T
 IS=    15 IAt=     2 ISR=     1 T=0 IP=      1 IndIP=     22 IndIPD=      0 C=  8.208952D-01  0.000000D+00                             NZ=T
 IS=    15 IAt=     2 ISR=     1 T=0 IP=      2 IndIP=     23 IndIPD=      1 C=  1.476645D+00  0.000000D+00                             NZ=T
 IS=    15 IAt=     2 ISR=     1 T=0 IP=      3 IndIP=     24 IndIPD=      2 C=  2.152612D+00  0.000000D+00                             NZ=T
 IS=    15 IAt=     2 ISR=     1 T=0 IP=      4 IndIP=     25 IndIPD=      3 C=  2.108172D+00  0.000000D+00                             NZ=T
 IS=    15 IAt=     2 ISR=     1 T=0 IP=      5 IndIP=     26 IndIPD=      4 C=  8.291000D-01  0.000000D+00                             NZ=T
 IS=    16 IAt=     2 ISR=     2 T=0 IP=      1 IndIP=     27 IndIPD=      0 C=  3.601183D-01  0.000000D+00                             NZ=T
 IS=    17 IAt=     2 ISR=     3 T=0 IP=      1 IndIP=     28 IndIPD=      0 C=  1.551027D-01  0.000000D+00                             NZ=T
 IS=    18 IAt=     2 ISR=     4 T=1 IP=      1 IndIP=     29 IndIPD=      0 C=  0.000000D+00  1.346764D+00                             NZ=T
 IS=    18 IAt=     2 ISR=     4 T=1 IP=      2 IndIP=     30 IndIPD=      1 C=  0.000000D+00  1.067807D+00                             NZ=T
 IS=    18 IAt=     2 ISR=     4 T=1 IP=      3 IndIP=     31 IndIPD=      2 C=  0.000000D+00  5.108736D-01                             NZ=T
 IS=    19 IAt=     2 ISR=     5 T=1 IP=      1 IndIP=     32 IndIPD=      0 C=  0.000000D+00  1.360472D-01                             NZ=T
 IS=    20 IAt=     2 ISR=     6 T=2 IP=      1 IndIP=     33 IndIPD=      7 C=  0.000000D+00  0.000000D+00  1.113825D+00  0.000000D+00 NZ=T
 IS=    21 IAt=     3 ISR=     1 T=0 IP=      1 IndIP=     34 IndIPD=      0 C=  8.208952D-01  0.000000D+00                             NZ=T
 IS=    21 IAt=     3 ISR=     1 T=0 IP=      2 IndIP=     35 IndIPD=      1 C=  1.476645D+00  0.000000D+00                             NZ=T
 IS=    21 IAt=     3 ISR=     1 T=0 IP=      3 IndIP=     36 IndIPD=      2 C=  2.152612D+00  0.000000D+00                             NZ=T
 IS=    21 IAt=     3 ISR=     1 T=0 IP=      4 IndIP=     37 IndIPD=      3 C=  2.108172D+00  0.000000D+00                             NZ=T
 IS=    21 IAt=     3 ISR=     1 T=0 IP=      5 IndIP=     38 IndIPD=      4 C=  8.291000D-01  0.000000D+00                             NZ=T
 IS=    22 IAt=     3 ISR=     2 T=0 IP=      1 IndIP=     39 IndIPD=      0 C=  3.601183D-01  0.000000D+00                             NZ=T
 IS=    23 IAt=     3 ISR=     3 T=0 IP=      1 IndIP=     40 IndIPD=      0 C=  1.551027D-01  0.000000D+00                             NZ=T
 IS=    24 IAt=     3 ISR=     4 T=1 IP=      1 IndIP=     41 IndIPD=      0 C=  0.000000D+00  1.346764D+00                             NZ=T
 IS=    24 IAt=     3 ISR=     4 T=1 IP=      2 IndIP=     42 IndIPD=      1 C=  0.000000D+00  1.067807D+00                             NZ=T
 IS=    24 IAt=     3 ISR=     4 T=1 IP=      3 IndIP=     43 IndIPD=      2 C=  0.000000D+00  5.108736D-01                             NZ=T
 IS=    25 IAt=     3 ISR=     5 T=1 IP=      1 IndIP=     44 IndIPD=      0 C=  0.000000D+00  1.360472D-01                             NZ=T
 IS=    26 IAt=     3 ISR=     6 T=2 IP=      1 IndIP=     45 IndIPD=      8 C=  0.000000D+00  0.000000D+00  1.113825D+00  0.000000D+00 NZ=T
 IS=    27 IAt=     4 ISR=     1 T=0 IP=      1 IndIP=     46 IndIPD=      0 C= -1.261586D+00  0.000000D+00                             NZ=T
 IS=    27 IAt=     4 ISR=     1 T=0 IP=      2 IndIP=     47 IndIPD=      1 C= -2.274850D+00  0.000000D+00                             NZ=T
 IS=    27 IAt=     4 ISR=     1 T=0 IP=      3 IndIP=     48 IndIPD=      2 C= -3.347962D+00  0.000000D+00                             NZ=T
 IS=    27 IAt=     4 ISR=     1 T=0 IP=      4 IndIP=     49 IndIPD=      3 C= -3.329998D+00  0.000000D+00                             NZ=T
 IS=    27 IAt=     4 ISR=     1 T=0 IP=      5 IndIP=     50 IndIPD=      4 C= -1.320383D+00  0.000000D+00                             NZ=T
 IS=    28 IAt=     4 ISR=     2 T=0 IP=      1 IndIP=     51 IndIPD=      0 C=  6.083832D-01  0.000000D+00                             NZ=T
 IS=    29 IAt=     4 ISR=     3 T=0 IP=      1 IndIP=     52 IndIPD=      0 C=  2.559812D-01  0.000000D+00                             NZ=T
 IS=    30 IAt=     4 ISR=     4 T=1 IP=      1 IndIP=     53 IndIPD=      0 C=  0.000000D+00  3.246011D+00                             NZ=T
 IS=    30 IAt=     4 ISR=     4 T=1 IP=      2 IndIP=     54 IndIPD=      1 C=  0.000000D+00  2.573496D+00                             NZ=T
 IS=    30 IAt=     4 ISR=     4 T=1 IP=      3 IndIP=     55 IndIPD=      2 C=  0.000000D+00  1.120837D+00                             NZ=T
 IS=    31 IAt=     4 ISR=     5 T=1 IP=      1 IndIP=     56 IndIPD=      0 C=  0.000000D+00  2.856886D-01                             NZ=T
 IS=    32 IAt=     4 ISR=     6 T=2 IP=      1 IndIP=     57 IndIPD=      9 C=  0.000000D+00  0.000000D+00  2.264522D+00  0.000000D+00 NZ=T
 IS=    33 IAt=     5 ISR=     1 T=0 IP=      1 IndIP=     58 IndIPD=      0 C= -1.261586D+00  0.000000D+00                             NZ=T
 IS=    33 IAt=     5 ISR=     1 T=0 IP=      2 IndIP=     59 IndIPD=      1 C= -2.274850D+00  0.000000D+00                             NZ=T
 IS=    33 IAt=     5 ISR=     1 T=0 IP=      3 IndIP=     60 IndIPD=      2 C= -3.347962D+00  0.000000D+00                             NZ=T
 IS=    33 IAt=     5 ISR=     1 T=0 IP=      4 IndIP=     61 IndIPD=      3 C= -3.329998D+00  0.000000D+00                             NZ=T
 IS=    33 IAt=     5 ISR=     1 T=0 IP=      5 IndIP=     62 IndIPD=      4 C= -1.320383D+00  0.000000D+00                             NZ=T
 IS=    34 IAt=     5 ISR=     2 T=0 IP=      1 IndIP=     63 IndIPD=      0 C=  6.083832D-01  0.000000D+00                             NZ=T
 IS=    35 IAt=     5 ISR=     3 T=0 IP=      1 IndIP=     64 IndIPD=      0 C=  2.559812D-01  0.000000D+00                             NZ=T
 IS=    36 IAt=     5 ISR=     4 T=1 IP=      1 IndIP=     65 IndIPD=      0 C=  0.000000D+00  3.246011D+00                             NZ=T
 IS=    36 IAt=     5 ISR=     4 T=1 IP=      2 IndIP=     66 IndIPD=      1 C=  0.000000D+00  2.573496D+00                             NZ=T
 IS=    36 IAt=     5 ISR=     4 T=1 IP=      3 IndIP=     67 IndIPD=      2 C=  0.000000D+00  1.120837D+00                             NZ=T
 IS=    37 IAt=     5 ISR=     5 T=1 IP=      1 IndIP=     68 IndIPD=      0 C=  0.000000D+00  2.856886D-01                             NZ=T
 IS=    38 IAt=     5 ISR=     6 T=2 IP=      1 IndIP=     69 IndIPD=     10 C=  0.000000D+00  0.000000D+00  2.264522D+00  0.000000D+00 NZ=T
 IExCor= 1009 DFT=T Ex=PBE Corr=PBE ExCW=0 ScaHFX=  0.000000
 ScaDFX=  1.000000  1.000000  1.000000  1.000000 ScalE2=  1.000000  1.000000
 IRadAn=      5 IRanWt=     -1 IRanGd=            0 ICorTp=0 IEmpDi=  4
 NAtoms=    5 NActive=    5 NUniq=    3 SFac= 2.78D+00 NAtFMM=   60 NAOKFM=F Big=F
 Integral buffers will be    131072 words long.
 Raffenetti 2 integral format.
 Two-electron integral symmetry is turned on.
 Pair potential:
 Leave Link  301 at Thu Jan 31 13:00:45 2019, MaxMem=   524288000 cpu:               1.6 elap:               0.5
 (Enter /scratch/SOFT/gaussian/g16_a03/g16/l302.exe)
 GetPCM: File not found, return IValue=0.
 NPDir=0 NMtPBC=     1 NCelOv=     1 NCel=       1 NClECP=     1 NCelD=      1
         NCelK=      1 NCelE2=     1 NClLst=     1 CellRange=     0.0.
 One-electron integrals computed using PRISM.
 One-electron integral symmetry used in STVInt
 Entering OneElI...
 OneElI was handed   524277450 working-precision words.
 Calculate overlap and kinetic energy integrals
    NBasis =  92  MinDer = 0  MaxDer = 0
 Requested accuracy = 0.1000D-12
 ShPair: Thresh= 1.00D-13 NBox=     0 BxSize= 0.00D+00 RnKept= 1.32D+01
         NSMCal=                  741 NSMKep=                 710
 Symmetry will be used
 PrmmSu-InSpLW:  IPartL=    0 NPrtUS=    4 NPrtUL=    1 DoSpLW=F IThBeg=    0 IThEnd=    3 NThAct=    4.
 PrsmSu:  NPrtUS=   4 ThrOK=T IAlg=1 NPAlg=2 LenDen=           0 ISkipM=0 DoSpLW=F IThBeg=    0 IThEnd=    3.
 Prism:   IPart=     0 DynPar=F LinDyn=F Incr=           1.
 PRISM was handed   131036483 working-precision words and   710 shell-pairs
 PRISM was handed   131036483 working-precision words and   710 shell-pairs
 PRISM was handed   131036483 working-precision words and   710 shell-pairs
 PRISM was handed   131036483 working-precision words and   710 shell-pairs
 IPart=  2 NShTot=          95 NBatch=          24 AvBLen=         4.0
 PrsmSu-ThDecC:  IPartSL=    2    0 NPrtUSL=    4    1 IThBeg=    0 IThEnd=    3 CPU=   -1 GPU=   -1 NThAct=    4.
 IPart=  1 NShTot=         106 NBatch=          29 AvBLen=         3.7
 PrsmSu-ThDecC:  IPartSL=    1    0 NPrtUSL=    4    1 IThBeg=    0 IThEnd=    3 CPU=   -1 GPU=   -1 NThAct=    3.
 IPart=  3 NShTot=          89 NBatch=          21 AvBLen=         4.2
 PrsmSu-ThDecC:  IPartSL=    3    0 NPrtUSL=    4    1 IThBeg=    0 IThEnd=    3 CPU=   -1 GPU=   -1 NThAct=    2.
 IPart=  0 NShTot=         121 NBatch=          38 AvBLen=         3.2
 PrsmSu-ThDecC:  IPartSL=    0    0 NPrtUSL=    4    1 IThBeg=    0 IThEnd=    3 CPU=   -1 GPU=   -1 NThAct=    1.
 PrSmSu:  NxtVal=              5.
 CnvPC1: ToCart=F Square=F ASymm=F DoDens=F IPureD=0 IPureF=0.
 CnvPC1: ToCart=F Square=F ASymm=F DoDens=F IPureD=0 IPureF=0.
 *** Overlap *** 
                1             2             3             4             5 
      1  0.100000D+01
      2  0.738891D+00  0.100000D+01
      3  0.489888D+00  0.893872D+00  0.100000D+01
      4  0.181290D+00  0.443182D+00  0.681228D+00  0.100000D+01
      5  0.947641D-01  0.246621D+00  0.413686D+00  0.864699D+00  0.100000D+01
      6  0.419751D-01  0.112615D+00  0.197751D+00  0.523344D+00  0.805613D+00
      7  0.000000D+00  0.000000D+00  0.000000D+00  0.000000D+00  0.000000D+00
      8  0.000000D+00  0.000000D+00  0.000000D+00  0.000000D+00  0.000000D+00
      9  0.000000D+00  0.000000D+00  0.000000D+00  0.000000D+00  0.000000D+00
     10  0.000000D+00  0.000000D+00  0.000000D+00  0.000000D+00  0.000000D+00
     11  0.000000D+00  0.000000D+00  0.000000D+00  0.000000D+00  0.000000D+00
     12  0.000000D+00  0.000000D+00  0.000000D+00  0.000000D+00  0.000000D+00
     13  0.000000D+00  0.000000D+00  0.000000D+00  0.000000D+00  0.000000D+00
     14  0.000000D+00  0.000000D+00  0.000000D+00  0.000000D+00  0.000000D+00
     15  0.000000D+00  0.000000D+00  0.000000D+00  0.000000D+00  0.000000D+00
     16  0.000000D+00  0.000000D+00  0.000000D+00  0.000000D+00  0.000000D+00
     17  0.000000D+00  0.000000D+00  0.000000D+00  0.000000D+00  0.000000D+00
     18  0.000000D+00  0.000000D+00  0.000000D+00  0.000000D+00  0.000000D+00
     19  0.000000D+00  0.000000D+00  0.000000D+00  0.000000D+00  0.000000D+00
     20  0.000000D+00  0.000000D+00  0.000000D+00  0.000000D+00  0.000000D+00
     21  0.000000D+00  0.000000D+00  0.000000D+00  0.000000D+00  0.000000D+00
     22  0.000000D+00  0.000000D+00  0.000000D+00  0.000000D+00  0.000000D+00
     23  0.000000D+00  0.000000D+00  0.000000D+00  0.000000D+00  0.000000D+00
     24  0.000000D+00  0.000000D+00  0.000000D+00  0.000000D+00  0.000000D+00
     25  0.000000D+00  0.000000D+00  0.000000D+00  0.000000D+00  0.000000D+00
     26  0.000000D+00  0.000000D+00  0.000000D+00  0.000000D+00  0.000000D+00
     27  0.000000D+00  0.000000D+00  0.000000D+00  0.000000D+00  0.000000D+00
     28  0.000000D+00  0.000000D+00  0.000000D+00  0.000000D+00  0.000000D+00
     29  0.000000D+00  0.000000D+00  0.000000D+00  0.000000D+00  0.000000D+00
     30  0.000000D+00  0.000000D+00  0.000000D+00  0.000000D+00  0.000000D+00
     31  0.000000D+00  0.000000D+00  0.000000D+00  0.000000D+00  0.000000D+00
     32  0.000000D+00  0.000000D+00  0.000000D+00  0.000000D+00  0.000000D+00
     33  0.000000D+00  0.000000D+00  0.000000D+00  0.000000D+00  0.000000D+00
     34  0.000000D+00  0.000000D+00  0.000000D+00  0.000000D+00  0.000000D+00
     35  0.000000D+00  0.000000D+00  0.000000D+00  0.000000D+00  0.000000D+00
     36  0.000000D+00  0.000000D+00  0.000000D+00  0.000000D+00  0.000000D+00
     37  0.000000D+00  0.506743D-05  0.878469D-03  0.319295D-01  0.397142D-01
     38  0.350760D-02  0.175518D-01  0.522924D-01  0.236210D+00  0.278604D+00
     39  0.378061D-01  0.103681D+00  0.185131D+00  0.448297D+00  0.529946D+00
     40  0.000000D+00  0.000000D+00  0.000000D+00  0.000000D+00  0.000000D+00
     41 -0.327364D-02 -0.207756D-01 -0.646284D-01 -0.149786D+00 -0.810527D-01
     42  0.964411D-05  0.612046D-04  0.190395D-03  0.441267D-03  0.238780D-03
     43  0.000000D+00  0.000000D+00  0.000000D+00  0.000000D+00  0.000000D+00
     44 -0.879021D-01 -0.225002D+00 -0.361323D+00 -0.511509D+00 -0.330579D+00
     45  0.258959D-03  0.662855D-03  0.106445D-02  0.150690D-02  0.973884D-03
     46 -0.805311D-03 -0.920936D-02 -0.303234D-01 -0.284852D-01 -0.670641D-02
     47  0.000000D+00  0.000000D+00  0.000000D+00  0.000000D+00  0.000000D+00
     48 -0.821852D-05 -0.939851D-04 -0.309462D-03 -0.290702D-03 -0.684415D-04
     49 -0.139486D-02 -0.159514D-01 -0.525226D-01 -0.493386D-01 -0.116160D-01
     50  0.000000D+00  0.000000D+00  0.000000D+00  0.000000D+00  0.000000D+00
     51  0.000000D+00  0.506743D-05  0.878469D-03  0.319295D-01  0.397142D-01
     52  0.350760D-02  0.175518D-01  0.522924D-01  0.236210D+00  0.278604D+00
     53  0.378061D-01  0.103681D+00  0.185131D+00  0.448297D+00  0.529946D+00
     54  0.000000D+00  0.000000D+00  0.000000D+00  0.000000D+00  0.000000D+00
     55  0.327364D-02  0.207756D-01  0.646284D-01  0.149786D+00  0.810527D-01
     56  0.964411D-05  0.612046D-04  0.190395D-03  0.441267D-03  0.238780D-03
     57  0.000000D+00  0.000000D+00  0.000000D+00  0.000000D+00  0.000000D+00
     58  0.879021D-01  0.225002D+00  0.361323D+00  0.511509D+00  0.330579D+00
     59  0.258959D-03  0.662855D-03  0.106445D-02  0.150690D-02  0.973884D-03
     60 -0.805311D-03 -0.920936D-02 -0.303234D-01 -0.284852D-01 -0.670641D-02
     61  0.000000D+00  0.000000D+00  0.000000D+00  0.000000D+00  0.000000D+00
     62  0.821852D-05  0.939851D-04  0.309462D-03  0.290702D-03  0.684415D-04
     63 -0.139486D-02 -0.159514D-01 -0.525226D-01 -0.493386D-01 -0.116160D-01
     64  0.000000D+00  0.000000D+00  0.000000D+00  0.000000D+00  0.000000D+00
     65  0.000000D+00  0.000000D+00  0.000000D+00 -0.576951D-03 -0.582553D-02
     66  0.000000D+00  0.000000D+00  0.000000D+00  0.620543D-02  0.432561D-01
     67  0.823317D-05  0.764305D-04  0.517532D-03  0.268877D-01  0.107221D+00
     68  0.000000D+00  0.000000D+00  0.000000D+00  0.000000D+00  0.000000D+00
     69  0.000000D+00  0.000000D+00  0.000000D+00 -0.508724D-02 -0.169875D-01
     70  0.000000D+00  0.000000D+00  0.000000D+00  0.149870D-04  0.500451D-04
     71  0.000000D+00  0.000000D+00  0.000000D+00  0.000000D+00  0.000000D+00
     72 -0.249809D-04 -0.242006D-03 -0.159922D-02 -0.499037D-01 -0.103469D+00
     73  0.000000D+00  0.000000D+00  0.471130D-05  0.147016D-03  0.304820D-03
     74  0.000000D+00  0.000000D+00  0.000000D+00 -0.195117D-02 -0.285474D-02
     75  0.000000D+00  0.000000D+00  0.000000D+00  0.000000D+00  0.000000D+00
     76  0.000000D+00  0.000000D+00  0.000000D+00 -0.199124D-04 -0.291337D-04
     77  0.000000D+00  0.000000D+00 -0.109448D-05 -0.337958D-02 -0.494464D-02
     78  0.000000D+00  0.000000D+00  0.000000D+00  0.000000D+00  0.000000D+00
     79  0.000000D+00  0.000000D+00  0.000000D+00 -0.576951D-03 -0.582553D-02
     80  0.000000D+00  0.000000D+00  0.000000D+00  0.620543D-02  0.432561D-01
     81  0.823317D-05  0.764305D-04  0.517532D-03  0.268877D-01  0.107221D+00
     82  0.000000D+00  0.000000D+00  0.000000D+00  0.000000D+00  0.000000D+00
     83  0.000000D+00  0.000000D+00  0.000000D+00  0.508724D-02  0.169875D-01
     84  0.000000D+00  0.000000D+00  0.000000D+00  0.149870D-04  0.500451D-04
     85  0.000000D+00  0.000000D+00  0.000000D+00  0.000000D+00  0.000000D+00
     86  0.249809D-04  0.242006D-03  0.159922D-02  0.499037D-01  0.103469D+00
     87  0.000000D+00  0.000000D+00  0.471130D-05  0.147016D-03  0.304820D-03
     88  0.000000D+00  0.000000D+00  0.000000D+00 -0.195117D-02 -0.285474D-02
     89  0.000000D+00  0.000000D+00  0.000000D+00  0.000000D+00  0.000000D+00
     90  0.000000D+00  0.000000D+00  0.000000D+00  0.199124D-04  0.291337D-04
     91  0.000000D+00  0.000000D+00 -0.109448D-05 -0.337958D-02 -0.494464D-02
     92  0.000000D+00  0.000000D+00  0.000000D+00  0.000000D+00  0.000000D+00
                6             7             8             9            10 
      6  0.100000D+01
      7  0.000000D+00  0.100000D+01
      8  0.000000D+00  0.000000D+00  0.100000D+01
      9  0.000000D+00  0.000000D+00  0.000000D+00  0.100000D+01
     10  0.000000D+00  0.683299D+00  0.000000D+00  0.000000D+00  0.100000D+01
     11  0.000000D+00  0.000000D+00  0.683299D+00  0.000000D+00  0.000000D+00
     12  0.000000D+00  0.000000D+00  0.000000D+00  0.683299D+00  0.000000D+00
     13  0.000000D+00  0.316279D+00  0.000000D+00  0.000000D+00  0.691153D+00
     14  0.000000D+00  0.000000D+00  0.316279D+00  0.000000D+00  0.000000D+00
     15  0.000000D+00  0.000000D+00  0.000000D+00  0.316279D+00  0.000000D+00
     16  0.000000D+00  0.752972D-01  0.000000D+00  0.000000D+00  0.222799D+00
     17  0.000000D+00  0.000000D+00  0.752972D-01  0.000000D+00  0.000000D+00
     18  0.000000D+00  0.000000D+00  0.000000D+00  0.752972D-01  0.000000D+00
     19  0.000000D+00  0.198894D-01  0.000000D+00  0.000000D+00  0.648974D-01
     20  0.000000D+00  0.000000D+00  0.198894D-01  0.000000D+00  0.000000D+00
     21  0.000000D+00  0.000000D+00  0.000000D+00  0.198894D-01  0.000000D+00
     22  0.000000D+00  0.000000D+00  0.000000D+00  0.000000D+00  0.000000D+00
     23  0.000000D+00  0.000000D+00  0.000000D+00  0.000000D+00  0.000000D+00
     24  0.000000D+00  0.000000D+00  0.000000D+00  0.000000D+00  0.000000D+00
     25  0.000000D+00  0.000000D+00  0.000000D+00  0.000000D+00  0.000000D+00
     26  0.000000D+00  0.000000D+00  0.000000D+00  0.000000D+00  0.000000D+00
     27  0.000000D+00  0.000000D+00  0.000000D+00  0.000000D+00  0.000000D+00
     28  0.000000D+00  0.000000D+00  0.000000D+00  0.000000D+00  0.000000D+00
     29  0.000000D+00  0.000000D+00  0.000000D+00  0.000000D+00  0.000000D+00
     30  0.000000D+00  0.000000D+00  0.000000D+00  0.000000D+00  0.000000D+00
     31  0.000000D+00  0.000000D+00  0.000000D+00  0.000000D+00  0.000000D+00
     32  0.000000D+00  0.000000D+00  0.000000D+00  0.000000D+00  0.000000D+00
     33  0.000000D+00  0.000000D+00  0.000000D+00  0.000000D+00  0.000000D+00
     34  0.000000D+00  0.000000D+00  0.000000D+00  0.000000D+00  0.000000D+00
     35  0.000000D+00  0.000000D+00  0.000000D+00  0.000000D+00  0.000000D+00
     36  0.000000D+00  0.000000D+00  0.000000D+00  0.000000D+00  0.000000D+00
     37  0.264570D-01  0.000000D+00  0.000000D+00  0.000000D+00  0.000000D+00
     38  0.194702D+00  0.000000D+00  0.141939D-01 -0.418151D-04  0.000000D+00
     39  0.409088D+00  0.000000D+00  0.409657D-01 -0.120685D-03  0.000000D+00
     40  0.000000D+00  0.175617D-02  0.000000D+00  0.000000D+00  0.126728D-01
     41 -0.195530D-01  0.000000D+00 -0.179877D-01  0.581653D-04  0.000000D+00
     42  0.576030D-04  0.000000D+00  0.581653D-04  0.175600D-02  0.000000D+00
     43  0.000000D+00  0.291457D-01  0.000000D+00  0.000000D+00  0.907576D-01
     44 -0.991247D-01  0.000000D+00 -0.773145D-01  0.313631D-03  0.000000D+00
     45  0.292021D-03  0.000000D+00  0.313631D-03  0.291448D-01  0.000000D+00
     46 -0.547036D-03  0.000000D+00 -0.807272D-02  0.345588D-04  0.000000D+00
     47  0.000000D+00  0.622192D-05  0.000000D+00  0.000000D+00  0.597365D-04
     48 -0.558271D-05  0.000000D+00 -0.886074D-04 -0.211171D-02  0.000000D+00
     49 -0.947510D-03  0.000000D+00 -0.139826D-01  0.474146D-04  0.000000D+00
     50  0.000000D+00 -0.211199D-02  0.000000D+00  0.000000D+00 -0.202772D-01
     51  0.264570D-01  0.000000D+00  0.000000D+00  0.000000D+00  0.000000D+00
     52  0.194702D+00  0.000000D+00 -0.141939D-01 -0.418151D-04  0.000000D+00
     53  0.409088D+00  0.000000D+00 -0.409657D-01 -0.120685D-03  0.000000D+00
     54  0.000000D+00  0.175617D-02  0.000000D+00  0.000000D+00  0.126728D-01
     55  0.195530D-01  0.000000D+00 -0.179877D-01 -0.581653D-04  0.000000D+00
     56  0.576030D-04  0.000000D+00 -0.581653D-04  0.175600D-02  0.000000D+00
     57  0.000000D+00  0.291457D-01  0.000000D+00  0.000000D+00  0.907576D-01
     58  0.991247D-01  0.000000D+00 -0.773145D-01 -0.313631D-03  0.000000D+00
     59  0.292021D-03  0.000000D+00 -0.313631D-03  0.291448D-01  0.000000D+00
     60 -0.547036D-03  0.000000D+00  0.807272D-02  0.345588D-04  0.000000D+00
     61  0.000000D+00  0.622192D-05  0.000000D+00  0.000000D+00  0.597365D-04
     62  0.558271D-05  0.000000D+00 -0.886074D-04  0.211171D-02  0.000000D+00
     63 -0.947510D-03  0.000000D+00  0.139826D-01  0.474146D-04  0.000000D+00
     64  0.000000D+00  0.211199D-02  0.000000D+00  0.000000D+00  0.202772D-01
     65 -0.102648D-01  0.000000D+00  0.000000D+00  0.000000D+00  0.000000D+00
     66  0.730883D-01  0.000000D+00  0.000000D+00  0.000000D+00  0.000000D+00
     67  0.167861D+00  0.000000D+00  0.528801D-04  0.000000D+00  0.000000D+00
     68  0.000000D+00  0.000000D+00  0.000000D+00  0.000000D+00  0.000000D+00
     69 -0.994728D-02  0.000000D+00  0.000000D+00  0.000000D+00  0.000000D+00
     70  0.293046D-04  0.000000D+00  0.000000D+00  0.000000D+00  0.000000D+00
     71  0.000000D+00  0.826553D-05  0.000000D+00  0.000000D+00  0.143547D-03
     72 -0.602790D-01  0.000000D+00 -0.168501D-03  0.000000D+00  0.000000D+00
     73  0.177581D-03  0.000000D+00  0.000000D+00  0.826399D-05  0.000000D+00
     74 -0.571473D-03  0.000000D+00  0.000000D+00  0.000000D+00  0.000000D+00
     75  0.000000D+00  0.000000D+00  0.000000D+00  0.000000D+00  0.000000D+00
     76 -0.583210D-05  0.000000D+00  0.000000D+00  0.000000D+00  0.000000D+00
     77 -0.989837D-03  0.000000D+00  0.000000D+00  0.000000D+00  0.000000D+00
     78  0.000000D+00  0.000000D+00  0.000000D+00  0.000000D+00  0.000000D+00
     79 -0.102648D-01  0.000000D+00  0.000000D+00  0.000000D+00  0.000000D+00
     80  0.730883D-01  0.000000D+00  0.000000D+00  0.000000D+00  0.000000D+00
     81  0.167861D+00  0.000000D+00 -0.528801D-04  0.000000D+00  0.000000D+00
     82  0.000000D+00  0.000000D+00  0.000000D+00  0.000000D+00  0.000000D+00
     83  0.994728D-02  0.000000D+00  0.000000D+00  0.000000D+00  0.000000D+00
     84  0.293046D-04  0.000000D+00  0.000000D+00  0.000000D+00  0.000000D+00
     85  0.000000D+00  0.826553D-05  0.000000D+00  0.000000D+00  0.143547D-03
     86  0.602790D-01  0.000000D+00 -0.168501D-03  0.000000D+00  0.000000D+00
     87  0.177581D-03  0.000000D+00  0.000000D+00  0.826399D-05  0.000000D+00
     88 -0.571473D-03  0.000000D+00  0.000000D+00  0.000000D+00  0.000000D+00
     89  0.000000D+00  0.000000D+00  0.000000D+00  0.000000D+00  0.000000D+00
     90  0.583210D-05  0.000000D+00  0.000000D+00  0.000000D+00  0.000000D+00
     91 -0.989837D-03  0.000000D+00  0.000000D+00  0.000000D+00  0.000000D+00
     92  0.000000D+00  0.000000D+00  0.000000D+00  0.000000D+00  0.000000D+00
               11            12            13            14            15 
     11  0.100000D+01
     12  0.000000D+00  0.100000D+01
     13  0.000000D+00  0.000000D+00  0.100000D+01
     14  0.691153D+00  0.000000D+00  0.000000D+00  0.100000D+01
     15  0.000000D+00  0.691153D+00  0.000000D+00  0.000000D+00  0.100000D+01
     16  0.000000D+00  0.000000D+00  0.590735D+00  0.000000D+00  0.000000D+00
     17  0.222799D+00  0.000000D+00  0.000000D+00  0.590735D+00  0.000000D+00
     18  0.000000D+00  0.222799D+00  0.000000D+00  0.000000D+00  0.590735D+00
     19  0.000000D+00  0.000000D+00  0.213671D+00  0.000000D+00  0.000000D+00
     20  0.648974D-01  0.000000D+00  0.000000D+00  0.213671D+00  0.000000D+00
     21  0.000000D+00  0.648974D-01  0.000000D+00  0.000000D+00  0.213671D+00
     22  0.000000D+00  0.000000D+00  0.000000D+00  0.000000D+00  0.000000D+00
     23  0.000000D+00  0.000000D+00  0.000000D+00  0.000000D+00  0.000000D+00
     24  0.000000D+00  0.000000D+00  0.000000D+00  0.000000D+00  0.000000D+00
     25  0.000000D+00  0.000000D+00  0.000000D+00  0.000000D+00  0.000000D+00
     26  0.000000D+00  0.000000D+00  0.000000D+00  0.000000D+00  0.000000D+00
     27  0.000000D+00  0.000000D+00  0.000000D+00  0.000000D+00  0.000000D+00
     28  0.000000D+00  0.000000D+00  0.000000D+00  0.000000D+00  0.000000D+00
     29  0.000000D+00  0.000000D+00  0.000000D+00  0.000000D+00  0.000000D+00
     30  0.000000D+00  0.000000D+00  0.000000D+00  0.000000D+00  0.000000D+00
     31  0.000000D+00  0.000000D+00  0.000000D+00  0.000000D+00  0.000000D+00
     32  0.000000D+00  0.000000D+00  0.000000D+00  0.000000D+00  0.000000D+00
     33  0.000000D+00  0.000000D+00  0.000000D+00  0.000000D+00  0.000000D+00
     34  0.000000D+00  0.000000D+00  0.000000D+00  0.000000D+00  0.000000D+00
     35  0.000000D+00  0.000000D+00  0.000000D+00  0.000000D+00  0.000000D+00
     36  0.000000D+00  0.000000D+00  0.000000D+00  0.000000D+00  0.000000D+00
     37  0.146176D-02 -0.430633D-05  0.000000D+00  0.332349D-01 -0.979097D-04
     38  0.669584D-01 -0.197259D-03  0.000000D+00  0.271717D+00 -0.800475D-03
     39  0.126291D+00 -0.372051D-03  0.000000D+00  0.357453D+00 -0.105305D-02
     40  0.000000D+00  0.000000D+00  0.688571D-01  0.000000D+00  0.000000D+00
     41 -0.865756D-01  0.292385D-03  0.000000D+00 -0.258216D+00  0.963556D-03
     42  0.292385D-03  0.126719D-01  0.000000D+00  0.963556D-03  0.688543D-01
     43  0.000000D+00  0.000000D+00  0.258628D+00  0.000000D+00  0.000000D+00
     44 -0.203833D+00  0.867860D-03  0.000000D+00 -0.390780D+00  0.191315D-02
     45  0.867860D-03  0.907550D-01  0.000000D+00  0.191315D-02  0.258623D+00
     46 -0.431407D-01  0.230559D-03  0.000000D+00 -0.775788D-01  0.660082D-03
     47  0.000000D+00  0.000000D+00  0.249147D-03  0.000000D+00  0.000000D+00
     48 -0.500006D-03 -0.202756D-01  0.000000D+00 -0.104088D-02 -0.845679D-01
     49 -0.747235D-01  0.279871D-03  0.000000D+00 -0.134374D+00  0.645013D-03
     50  0.000000D+00  0.000000D+00 -0.845717D-01  0.000000D+00  0.000000D+00
     51 -0.146176D-02 -0.430633D-05  0.000000D+00 -0.332349D-01 -0.979097D-04
     52 -0.669584D-01 -0.197259D-03  0.000000D+00 -0.271717D+00 -0.800475D-03
     53 -0.126291D+00 -0.372051D-03  0.000000D+00 -0.357453D+00 -0.105305D-02
     54  0.000000D+00  0.000000D+00  0.688571D-01  0.000000D+00  0.000000D+00
     55 -0.865756D-01 -0.292385D-03  0.000000D+00 -0.258216D+00 -0.963556D-03
     56 -0.292385D-03  0.126719D-01  0.000000D+00 -0.963556D-03  0.688543D-01
     57  0.000000D+00  0.000000D+00  0.258628D+00  0.000000D+00  0.000000D+00
     58 -0.203833D+00 -0.867860D-03  0.000000D+00 -0.390780D+00 -0.191315D-02
     59 -0.867860D-03  0.907550D-01  0.000000D+00 -0.191315D-02  0.258623D+00
     60  0.431407D-01  0.230559D-03  0.000000D+00  0.775788D-01  0.660082D-03
     61  0.000000D+00  0.000000D+00  0.249147D-03  0.000000D+00  0.000000D+00
     62 -0.500006D-03  0.202756D-01  0.000000D+00 -0.104088D-02  0.845679D-01
     63  0.747235D-01  0.279871D-03  0.000000D+00  0.134374D+00  0.645013D-03
     64  0.000000D+00  0.000000D+00  0.845717D-01  0.000000D+00  0.000000D+00
     65  0.000000D+00  0.000000D+00  0.000000D+00 -0.134064D-04  0.000000D+00
     66  0.213451D-05  0.000000D+00  0.000000D+00  0.649727D-03 -0.191409D-05
     67  0.715920D-03 -0.210909D-05  0.000000D+00  0.112810D-01 -0.332337D-04
     68  0.000000D+00  0.000000D+00  0.413167D-04  0.000000D+00  0.000000D+00
     69 -0.189471D-05  0.000000D+00  0.000000D+00 -0.728890D-03  0.226902D-05
     70  0.000000D+00  0.000000D+00  0.000000D+00  0.226902D-05  0.413100D-04
     71  0.000000D+00  0.000000D+00  0.268548D-02  0.000000D+00  0.000000D+00
     72 -0.220327D-02  0.691370D-05  0.000000D+00 -0.291079D-01  0.936631D-04
     73  0.691370D-05  0.143527D-03  0.000000D+00  0.936631D-04  0.268520D-02
     74 -0.157703D-05  0.000000D+00  0.000000D+00 -0.496361D-03  0.197695D-05
     75  0.000000D+00  0.000000D+00  0.000000D+00  0.000000D+00  0.000000D+00
     76  0.000000D+00  0.000000D+00  0.000000D+00 -0.536271D-05 -0.100848D-03
     77 -0.273155D-05  0.000000D+00  0.000000D+00 -0.859739D-03  0.282993D-05
     78  0.000000D+00  0.000000D+00 -0.100864D-03  0.000000D+00  0.000000D+00
     79  0.000000D+00  0.000000D+00  0.000000D+00  0.134064D-04  0.000000D+00
     80 -0.213451D-05  0.000000D+00  0.000000D+00 -0.649727D-03 -0.191409D-05
     81 -0.715920D-03 -0.210909D-05  0.000000D+00 -0.112810D-01 -0.332337D-04
     82  0.000000D+00  0.000000D+00  0.413167D-04  0.000000D+00  0.000000D+00
     83 -0.189471D-05  0.000000D+00  0.000000D+00 -0.728890D-03 -0.226902D-05
     84  0.000000D+00  0.000000D+00  0.000000D+00 -0.226902D-05  0.413100D-04
     85  0.000000D+00  0.000000D+00  0.268548D-02  0.000000D+00  0.000000D+00
     86 -0.220327D-02 -0.691370D-05  0.000000D+00 -0.291079D-01 -0.936631D-04
     87 -0.691370D-05  0.143527D-03  0.000000D+00 -0.936631D-04  0.268520D-02
     88  0.157703D-05  0.000000D+00  0.000000D+00  0.496361D-03  0.197695D-05
     89  0.000000D+00  0.000000D+00  0.000000D+00  0.000000D+00  0.000000D+00
     90  0.000000D+00  0.000000D+00  0.000000D+00 -0.536271D-05  0.100848D-03
     91  0.273155D-05  0.000000D+00  0.000000D+00  0.859739D-03  0.282993D-05
     92  0.000000D+00  0.000000D+00  0.100864D-03  0.000000D+00  0.000000D+00
               16            17            18            19            20 
     16  0.100000D+01
     17  0.000000D+00  0.100000D+01
     18  0.000000D+00  0.000000D+00  0.100000D+01
     19  0.691858D+00  0.000000D+00  0.000000D+00  0.100000D+01
     20  0.000000D+00  0.691858D+00  0.000000D+00  0.000000D+00  0.100000D+01
     21  0.000000D+00  0.000000D+00  0.691858D+00  0.000000D+00  0.000000D+00
     22  0.000000D+00  0.000000D+00  0.000000D+00  0.000000D+00  0.000000D+00
     23  0.000000D+00  0.000000D+00  0.000000D+00  0.000000D+00  0.000000D+00
     24  0.000000D+00  0.000000D+00  0.000000D+00  0.000000D+00  0.000000D+00
     25  0.000000D+00  0.000000D+00  0.000000D+00  0.000000D+00  0.000000D+00
     26  0.000000D+00  0.000000D+00  0.000000D+00  0.000000D+00  0.000000D+00
     27  0.000000D+00  0.000000D+00  0.000000D+00  0.000000D+00  0.000000D+00
     28  0.000000D+00  0.000000D+00  0.000000D+00  0.000000D+00  0.000000D+00
     29  0.000000D+00  0.000000D+00  0.000000D+00  0.000000D+00  0.000000D+00
     30  0.000000D+00  0.000000D+00  0.000000D+00  0.000000D+00  0.000000D+00
     31  0.000000D+00  0.000000D+00  0.000000D+00  0.000000D+00  0.000000D+00
     32  0.000000D+00  0.000000D+00  0.000000D+00  0.000000D+00  0.000000D+00
     33  0.000000D+00  0.000000D+00  0.000000D+00  0.000000D+00  0.000000D+00
     34  0.000000D+00  0.000000D+00  0.000000D+00  0.000000D+00  0.000000D+00
     35  0.000000D+00  0.000000D+00  0.000000D+00  0.000000D+00  0.000000D+00
     36  0.000000D+00  0.000000D+00  0.000000D+00  0.000000D+00  0.000000D+00
     37  0.000000D+00  0.742497D-01 -0.218739D-03  0.000000D+00  0.342711D-01
     38  0.000000D+00  0.448764D+00 -0.132205D-02  0.000000D+00  0.236168D+00
     39  0.000000D+00  0.639533D+00 -0.188406D-02  0.000000D+00  0.432723D+00
     40  0.119548D+00  0.000000D+00  0.000000D+00  0.602512D-01  0.000000D+00
     41  0.000000D+00 -0.730535D-01  0.567403D-03  0.000000D+00  0.259114D-01
     42  0.000000D+00  0.567403D-03  0.119547D+00  0.000000D+00  0.101165D-03
     43  0.446822D+00  0.000000D+00  0.000000D+00  0.288094D+00  0.000000D+00
     44  0.000000D+00 -0.105872D+00  0.162823D-02  0.000000D+00  0.139724D+00
     45  0.000000D+00  0.162823D-02  0.446817D+00  0.000000D+00  0.437094D-03
     46  0.000000D+00  0.484046D-02  0.235515D-03  0.000000D+00  0.343207D-02
     47  0.144208D-03  0.000000D+00  0.000000D+00  0.245931D-04  0.000000D+00
     48  0.000000D+00 -0.948137D-04 -0.489497D-01  0.000000D+00  0.104316D-04
     49  0.000000D+00  0.838323D-02  0.119511D-03  0.000000D+00  0.594448D-02
     50 -0.489504D-01  0.000000D+00  0.000000D+00 -0.834801D-02  0.000000D+00
     51  0.000000D+00 -0.742497D-01 -0.218739D-03  0.000000D+00 -0.342711D-01
[...]
  69        4PY         0.00000   0.00000  -0.00000   0.00000   0.00000
  70        4PZ         0.00000   0.00000   0.00000   0.00000   0.00000
  71        5PX        -0.00000   0.00000   0.00000   0.00000   0.00000
  72        5PY         0.00000   0.00000  -0.00000   0.00000   0.00000
  73        5PZ         0.00000   0.00000   0.00000   0.00000   0.00000
  74        6D 0        0.00000   0.00000  -0.00000   0.00000   0.00000
  75        6D+1        0.00000   0.00000   0.00000  -0.00000   0.00000
  76        6D-1        0.00000   0.00000   0.00000   0.00000  -0.00000
  77        6D+2        0.00000   0.00000  -0.00000   0.00000   0.00000
  78        6D-2       -0.00000   0.00000   0.00000   0.00000   0.00000
  79 5   O  1S          0.00000  -0.00000  -0.00004   0.00000   0.00000
  80        2S          0.00000   0.00000   0.00132   0.00000   0.00000
  81        3S          0.00000   0.00000   0.00080   0.00000  -0.00000
  82        4PX        -0.00000   0.00000   0.00000   0.00077   0.00000
  83        4PY         0.00000   0.00000   0.00184   0.00000   0.00000
  84        4PZ         0.00000   0.00081   0.00000   0.00000   0.00000
  85        5PX        -0.00000   0.00000   0.00000   0.00185   0.00000
  86        5PY         0.00000   0.00000   0.00103   0.00000  -0.00000
  87        5PZ         0.00000   0.00194   0.00000   0.00000   0.00000
  88        6D 0        0.00000   0.00000   0.00003   0.00000   0.00000
  89        6D+1        0.00000   0.00000   0.00000   0.00000   0.00000
  90        6D-1        0.00000   0.00005   0.00000   0.00000   0.00000
  91        6D+2        0.00000   0.00000   0.00009   0.00000   0.00000
  92        6D-2       -0.00000   0.00000   0.00000   0.00005   0.00000
                          66        67        68        69        70
  66        2S          0.91201
  67        3S          0.46141   0.38658
  68        4PX         0.00000   0.00000   0.63358
  69        4PY         0.00000   0.00000   0.00000   0.50253
  70        4PZ         0.00000   0.00000   0.00000  -0.00000   0.69181
  71        5PX         0.00000   0.00000   0.18822   0.00000   0.00000
  72        5PY         0.00000   0.00000   0.00000   0.13469  -0.00000
  73        5PZ         0.00000   0.00000   0.00000  -0.00000   0.20538
  74        6D 0       -0.00000  -0.00000   0.00000   0.00000   0.00000
  75        6D+1        0.00000   0.00000   0.00000   0.00000   0.00000
  76        6D-1        0.00000   0.00000   0.00000   0.00000   0.00000
  77        6D+2       -0.00000   0.00000   0.00000   0.00000   0.00000
  78        6D-2        0.00000   0.00000   0.00000   0.00000   0.00000
  79 5   O  1S          0.00000  -0.00000   0.00000   0.00000   0.00000
  80        2S          0.00000   0.00000   0.00000   0.00000   0.00000
  81        3S          0.00000   0.00000   0.00000   0.00000   0.00000
  82        4PX         0.00000   0.00000   0.00000   0.00000   0.00000
  83        4PY         0.00000   0.00000   0.00000   0.00000   0.00000
  84        4PZ         0.00000  -0.00000   0.00000   0.00000   0.00000
  85        5PX         0.00000   0.00000  -0.00000   0.00000   0.00000
  86        5PY         0.00000   0.00000   0.00000  -0.00000  -0.00000
  87        5PZ        -0.00000  -0.00000   0.00000   0.00000  -0.00000
  88        6D 0        0.00000   0.00000   0.00000   0.00000   0.00000
  89        6D+1        0.00000   0.00000   0.00000   0.00000   0.00000
  90        6D-1        0.00000  -0.00000   0.00000   0.00000   0.00000
  91        6D+2        0.00000   0.00000   0.00000   0.00000   0.00000
  92        6D-2        0.00000   0.00000   0.00000   0.00000   0.00000
                          71        72        73        74        75
  71        5PX         0.22183
  72        5PY         0.00000   0.14381
  73        5PZ         0.00000  -0.00000   0.24191
  74        6D 0        0.00000   0.00000   0.00000   0.00021
  75        6D+1        0.00000   0.00000   0.00000   0.00000   0.00000
  76        6D-1        0.00000   0.00000   0.00000  -0.00000   0.00000
  77        6D+2        0.00000   0.00000   0.00000  -0.00000   0.00000
  78        6D-2        0.00000   0.00000   0.00000   0.00000  -0.00000
  79 5   O  1S          0.00000  -0.00000  -0.00000   0.00000   0.00000
  80        2S          0.00000   0.00000   0.00000   0.00000   0.00000
  81        3S          0.00000   0.00000   0.00000   0.00000   0.00000
  82        4PX        -0.00000   0.00000   0.00000   0.00000   0.00000
  83        4PY         0.00000  -0.00000  -0.00000   0.00000   0.00000
  84        4PZ         0.00000   0.00000  -0.00000   0.00000   0.00000
  85        5PX        -0.00000   0.00000   0.00000   0.00000  -0.00000
  86        5PY         0.00000  -0.00000  -0.00000  -0.00000   0.00000
  87        5PZ         0.00000   0.00000  -0.00000   0.00000   0.00000
  88        6D 0        0.00000  -0.00000  -0.00000   0.00000   0.00000
  89        6D+1        0.00000   0.00000   0.00000   0.00000   0.00000
  90        6D-1        0.00000   0.00000  -0.00000   0.00000   0.00000
  91        6D+2        0.00000  -0.00000  -0.00000   0.00000   0.00000
  92        6D-2       -0.00000   0.00000   0.00000   0.00000   0.00000
                          76        77        78        79        80
  76        6D-1        0.00064
  77        6D+2       -0.00000   0.00062
  78        6D-2        0.00000   0.00000   0.00057
  79 5   O  1S          0.00000   0.00000   0.00000   2.15935
  80        2S          0.00000   0.00000   0.00000  -0.11964   0.91201
  81        3S          0.00000   0.00000   0.00000  -0.05354   0.46141
  82        4PX         0.00000   0.00000   0.00000   0.00000   0.00000
  83        4PY         0.00000   0.00000   0.00000   0.00000   0.00000
  84        4PZ         0.00000   0.00000   0.00000   0.00000   0.00000
  85        5PX         0.00000   0.00000  -0.00000   0.00000   0.00000
  86        5PY        -0.00000  -0.00000   0.00000   0.00000   0.00000
  87        5PZ        -0.00000   0.00000   0.00000   0.00000   0.00000
  88        6D 0        0.00000   0.00000   0.00000   0.00000  -0.00000
  89        6D+1        0.00000   0.00000   0.00000   0.00000   0.00000
  90        6D-1        0.00000   0.00000   0.00000   0.00000  -0.00000
  91        6D+2        0.00000   0.00000   0.00000   0.00000  -0.00000
  92        6D-2        0.00000   0.00000   0.00000   0.00000   0.00000
                          81        82        83        84        85
  81        3S          0.38658
  82        4PX         0.00000   0.63358
  83        4PY         0.00000   0.00000   0.50253
  84        4PZ         0.00000   0.00000   0.00000   0.69181
  85        5PX         0.00000   0.18822   0.00000   0.00000   0.22183
  86        5PY         0.00000   0.00000   0.13469   0.00000   0.00000
  87        5PZ         0.00000   0.00000   0.00000   0.20538   0.00000
  88        6D 0       -0.00000   0.00000   0.00000   0.00000   0.00000
  89        6D+1        0.00000   0.00000   0.00000   0.00000   0.00000
  90        6D-1       -0.00000   0.00000   0.00000   0.00000   0.00000
  91        6D+2        0.00000   0.00000   0.00000   0.00000   0.00000
  92        6D-2        0.00000   0.00000   0.00000   0.00000   0.00000
                          86        87        88        89        90
  86        5PY         0.14381
  87        5PZ         0.00000   0.24191
  88        6D 0        0.00000   0.00000   0.00021
  89        6D+1        0.00000   0.00000   0.00000   0.00000
  90        6D-1        0.00000   0.00000   0.00000   0.00000   0.00064
  91        6D+2        0.00000   0.00000  -0.00000   0.00000   0.00000
  92        6D-2        0.00000   0.00000   0.00000   0.00000   0.00000
                          91        92
  91        6D+2        0.00062
  92        6D-2        0.00000   0.00057
     Gross orbital populations:
                           1
   1 1   Ru 1S         -0.35819
   2        2S          1.56188
   3        3S          0.78470
   4        4S          0.30145
   5        5S         -0.00418
   6        6S         -0.00001
   7        7PX         0.22820
   8        7PY         0.23760
   9        7PZ         0.22837
  10        8PX         1.69626
  11        8PY         1.70227
  12        8PZ         1.69653
  13        9PX         0.08336
  14        9PY         0.19679
  15        9PZ         0.08653
  16       10PX         0.00142
  17       10PY        -0.03595
  18       10PZ         0.00293
  19       11PX         0.00283
  20       11PY         0.00770
  21       11PZ         0.00369
  22       12D 0        1.50199
  23       12D+1        0.41862
  24       12D-1        1.41953
  25       12D+2        0.95436
  26       12D-2        1.41234
  27       13D 0        0.20924
  28       13D+1        0.04578
  29       13D-1        0.24721
  30       13D+2        0.19670
  31       13D-2        0.24802
  32       14D 0       -0.00003
  33       14D+1        0.00023
  34       14D-1       -0.00520
  35       14D+2       -0.00041
  36       14D-2       -0.00558
  37 2   C  1S          1.98823
  38        2S          1.17502
  39        3S          0.36553
  40        4PX         0.37402
  41        4PY         0.67572
  42        4PZ         0.43264
  43        5PX         0.22693
  44        5PY         0.04847
  45        5PZ         0.26589
  46        6D 0        0.00279
  47        6D+1        0.00006
  48        6D-1        0.00835
  49        6D+2        0.00761
  50        6D-2        0.00820
  51 3   C  1S          1.98823
  52        2S          1.17502
  53        3S          0.36553
  54        4PX         0.37402
  55        4PY         0.67572
  56        4PZ         0.43264
  57        5PX         0.22693
  58        5PY         0.04847
  59        5PZ         0.26589
  60        6D 0        0.00279
  61        6D+1        0.00006
  62        6D-1        0.00835
  63        6D+2        0.00761
  64        6D-2        0.00820
  65 4   O  1S          1.99015
  66        2S          1.23683
  67        3S          0.74709
  68        4PX         0.84623
  69        4PY         0.72071
  70        4PZ         0.92564
  71        5PX         0.47731
  72        5PY         0.40981
  73        5PZ         0.52591
  74        6D 0        0.00104
  75        6D+1        0.00000
  76        6D-1        0.00172
  77        6D+2        0.00309
  78        6D-2        0.00150
  79 5   O  1S          1.99015
  80        2S          1.23683
  81        3S          0.74709
  82        4PX         0.84623
  83        4PY         0.72071
  84        4PZ         0.92564
  85        5PX         0.47731
  86        5PY         0.40981
  87        5PZ         0.52591
  88        6D 0        0.00104
  89        6D+1        0.00000
  90        6D-1        0.00172
  91        6D+2        0.00309
  92        6D-2        0.00150
          Condensed to atoms (all electrons):
               1          2          3          4          5
     1  Ru  14.723748   0.176363   0.176363  -0.004745  -0.004745
     2  C    0.176363   5.058900  -0.019087   0.363234   0.000052
     3  C    0.176363  -0.019087   5.058900   0.000052   0.363234
     4  O   -0.004745   0.363234   0.000052   7.528504  -0.000000
     5  O   -0.004745   0.000052   0.363234  -0.000000   7.528504
 Mulliken charges:
               1
     1  Ru   0.933016
     2  C    0.420538
     3  C    0.420538
     4  O    0.112954
     5  O    0.112954
 Sum of Mulliken charges =   2.00000
 Mulliken charges with hydrogens summed into heavy atoms:
               1
     1  Ru   0.933016
     2  C    0.420538
     3  C    0.420538
     4  O    0.112954
     5  O    0.112954
 Electronic spatial extent (au):  <R**2>=            906.7087
 Charge=              2.0000 electrons
 Dipole moment (field-independent basis, Debye):
    X=              0.0000    Y=              0.0000    Z=             -0.2298  Tot=              0.2298
 Quadrupole moment (field-independent basis, Debye-Ang):
   XX=            -33.8377   YY=             -5.4677   ZZ=            -34.4676
   XY=             -0.0000   XZ=             -0.0000   YZ=             -0.0000
 Traceless Quadrupole moment (field-independent basis, Debye-Ang):
   XX=             -9.2467   YY=             19.1233   ZZ=             -9.8766
   XY=             -0.0000   XZ=             -0.0000   YZ=             -0.0000
 Octapole moment (field-independent basis, Debye-Ang**2):
  XXX=             -0.0000  YYY=              0.0000  ZZZ=             -0.0675  XYY=              0.0000
  XXY=              0.0000  XXZ=             -0.2921  XZZ=             -0.0000  YZZ=             -0.0000
  YYZ=             -0.2462  XYZ=              0.0000
 Hexadecapole moment (field-independent basis, Debye-Ang**3):
 XXXX=            -28.1865 YYYY=           -605.6920 ZZZZ=            -29.1764 XXXY=              0.0000
 XXXZ=              0.0000 YYYX=              0.0000 YYYZ=              0.0000 ZZZX=              0.0000
 ZZZY=              0.0000 XXYY=           -160.4190 XXZZ=             -8.8711 YYZZ=           -165.2971
 XXYZ=              0.0000 YYXZ=             -0.0000 ZZXY=              0.0000
 N-N= 1.434291633365D+02 E-N=-9.943542614498D+02  KE= 2.571141557880D+02
 Symmetry A1   KE= 1.212274733028D+02
 Symmetry A2   KE= 8.890853040857D+00
 Symmetry B1   KE= 8.992588744145D+00
 Symmetry B2   KE= 1.180032407002D+02
 Orbital energies and kinetic energies (alpha):
                                 1                 2
   1         (A1)--O         -19.309989         28.750760
   2         (B2)--O         -19.309897         28.758712
   3         (A1)--O         -10.523005         15.750928
   4         (B2)--O         -10.522981         15.752316
   5         (A1)--O          -3.456300          1.722948
   6         (B2)--O          -2.343251          2.340774
   7         (B1)--O          -2.329709          2.373834
   8         (A1)--O          -2.329524          2.373983
   9         (A1)--O          -1.300302          3.099626
  10         (B2)--O          -1.299962          3.107441
  11         (A1)--O          -1.039677          2.031284
  12         (B2)--O          -0.966272          2.365678
  13         (A1)--O          -0.853965          2.388664
  14         (A2)--O          -0.810045          1.946050
  15         (B2)--O          -0.808959          1.953264
  16         (B2)--O          -0.792811          2.234605
  17         (B1)--O          -0.747359          2.122460
  18         (A1)--O          -0.745567          2.500503
  19         (A1)--O          -0.743804          1.995040
  20         (A2)--O          -0.723579          2.499376
  21         (B2)--O          -0.719706          2.488832
  22         (B1)--V          -0.747980          2.420316
  23         (A1)--V          -0.692548          1.892884
  24         (B1)--V          -0.630444          1.936735
  25         (A1)--V          -0.627648          1.951358
  26         (A2)--V          -0.566033          2.317219
  27         (B2)--V          -0.564062          2.320123
  28         (A1)--V          -0.490893          2.607744
  29         (B2)--V          -0.424089          3.002520
  30         (B1)--V          -0.380000          0.759727
  31         (A1)--V          -0.379171          0.760955
  32         (A1)--V          -0.305584          1.231605
  33         (B2)--V          -0.271844          0.627196
  34         (A1)--V          -0.227097          0.418701
  35         (B1)--V          -0.224670          0.408017
  36         (A1)--V          -0.206632          1.371163
  37         (A2)--V          -0.204295          0.476760
  38         (B2)--V          -0.203664          0.475730
  39         (B1)--V          -0.192467          0.248087
  40         (A1)--V          -0.192190          0.248627
  41         (B2)--V          -0.156859          0.547797
  42         (A1)--V          -0.148004          0.633251
  43         (A1)--V          -0.096639          1.082801
  44         (A2)--V           0.073944          1.765484
  45         (B2)--V           0.075117          1.764657
  46         (A1)--V           0.076639          1.333343
  47         (B1)--V           0.079552          1.316250
  48         (B2)--V           0.105008          1.667272
  49         (B1)--V           0.123165          1.829831
  50         (A1)--V           0.124432          1.828054
  51         (B1)--V           0.160624          1.609881
  52         (A1)--V           0.161241          1.611432
  53         (A1)--V           0.209403          1.833772
  54         (A2)--V           0.231273          1.908781
  55         (B2)--V           0.232478          1.908960
  56         (B2)--V           0.285621          2.732659
  57         (A1)--V           0.296232          1.904967
  58         (A1)--V           0.451042          2.434673
  59         (B2)--V           0.456926          2.764820
  60         (B1)--V           0.526332          3.293411
  61         (A1)--V           0.529050          3.296579
  62         (A1)--V           0.543399          3.358924
  63         (B2)--V           0.561535          3.130617
  64         (A2)--V           0.591226          3.212743
  65         (B2)--V           0.593818          3.216214
  66         (B2)--V           1.048627          3.983279
  67         (A1)--V           1.074025          4.306149
  68         (A2)--V           1.101359          2.798744
  69         (B2)--V           1.101536          2.798769
  70         (B1)--V           1.117449          2.893548
  71         (A1)--V           1.119693          2.893470
  72         (B1)--V           1.124343          2.819569
  73         (A1)--V           1.124378          2.819755
  74         (A2)--V           1.230589          2.952078
  75         (B2)--V           1.232720          2.952167
  76         (A1)--V           1.415844          3.521073
  77         (B2)--V           1.477119          3.677996
  78         (A1)--V           2.031708          4.699446
  79         (A2)--V           2.073258          4.202538
  80         (B2)--V           2.073291          4.202539
  81         (B1)--V           2.073589          4.202793
  82         (A1)--V           2.073631          4.202878
  83         (B1)--V           2.175567          4.341822
  84         (A2)--V           2.176885          4.344054
  85         (A1)--V           2.179675          4.341882
  86         (B2)--V           2.180999          4.344115
  87         (B2)--V           2.582864          4.952731
  88         (A1)--V           2.654938          5.098589
  89         (B1)--V          33.138716         20.643487
  90         (A1)--V          33.138884         20.643499
  91         (B2)--V          34.210725         20.982208
  92         (A1)--V          45.300345         10.243374
 Total kinetic energy from orbitals= 2.571141557880D+02
 No NMR shielding tensors so no spin-rotation constants.
 Leave Link  601 at Thu Jan 31 13:01:49 2019, MaxMem=   524288000 cpu:               0.4 elap:               0.1
 (Enter /scratch/SOFT/gaussian/g16_a03/g16/l9999.exe)

 Test job not archived.
 1\1\GINC-PHOENIX\SP\RPBEPBE\Gen\C2O2Ru1(2+)\MGIMFERRER\31-Jan-2019\0\\
 #p pbepbe/gen pop=full scf=xqc 5d 7f gfinput pseudo=read iop(3/33=3)\\
 dsfdsf\\2,1\Ru,0,0.,0.,0.\C,0,1.337845834,-1.35186503,-0.005225752\C,0
 ,-1.344878776,1.344878776,0.\O,0,2.456508277,-2.482249861,-0.009595353
 \O,0,-2.469421932,2.469421932,0.\\Version=ES64L-G16RevA.03\State=1-A1\
 HF=-319.8771765\RMSD=6.562e-13\Dipole=-0.056747,-0.0563703,-0.0421653\
 Quadrupole=3.432068,3.544444,-6.976512,-10.7292793,-0.1574876,-0.11559
 87\PG=C02V [C2(Ru1),SGV(C2O2)]\\@


 Experience is what you get when you don't get what you want.
 -- Dan Stanford
 Job cpu time:       0 days  0 hours  4 minutes 15.7 seconds.
 Elapsed time:       0 days  0 hours  1 minutes  4.7 seconds.
 File lengths (MBytes):  RWF=     10 Int=      0 D2E=      0 Chk=      2 Scr=      1
 Normal termination of Gaussian 16 at Thu Jan 31 13:01:49 2019.
